
     Program PWSCF v.6.3MaX starts on 10May2022 at 15:55:23 

     This program is part of the open-source Quantum ESPRESSO suite
     for quantum simulation of materials; please cite
         "P. Giannozzi et al., J. Phys.:Condens. Matter 21 395502 (2009);
         "P. Giannozzi et al., J. Phys.:Condens. Matter 29 465901 (2017);
          URL http://www.quantum-espresso.org", 
     in publications or presentations arising from this work. More details at
     http://www.quantum-espresso.org/quote

     Parallel version (MPI), running on     1 processors

     MPI processes distributed on     1 nodes
     Waiting for input...
     Reading input from standard input

     Current dimensions of program PWSCF are:
     Max number of different atomic species (ntypx) = 10
     Max number of k-points (npk) =  40000
     Max angular momentum in pseudopotentials (lmaxx) =  3
               file Ge.pbe-dn-kjpaw_psl.0.2.2.UPF: wavefunction(s)  4P 3D renormalized

     Subspace diagonalization in iterative solution of the eigenvalue problem:
     a serial algorithm will be used

 
     G-vector sticks info
     --------------------
     sticks:   dense  smooth     PW     G-vecs:    dense   smooth      PW
     Sum         499     499    151                 7119     7119    1243
 


     bravais-lattice index     =            2
     lattice parameter (alat)  =      10.2000  a.u.
     unit-cell volume          =     265.3020 (a.u.)^3
     number of atoms/cell      =            2
     number of atomic types    =            1
     number of electrons       =        28.00
     number of Kohn-Sham states=           14
     kinetic-energy cutoff     =      33.9470  Ry
     charge density cutoff     =     135.7880  Ry
     convergence threshold     =      1.0E-08
     mixing beta               =       0.7000
     number of iterations used =            8  plain     mixing
     Exchange-correlation      = SLA PW PBX PBC ( 1  4  3  4 0 0)

     celldm(1)=  10.200000  celldm(2)=   0.000000  celldm(3)=   0.000000
     celldm(4)=   0.000000  celldm(5)=   0.000000  celldm(6)=   0.000000

     crystal axes: (cart. coord. in units of alat)
               a(1) = (  -0.500000   0.000000   0.500000 )  
               a(2) = (   0.000000   0.500000   0.500000 )  
               a(3) = (  -0.500000   0.500000   0.000000 )  

     reciprocal axes: (cart. coord. in units 2 pi/alat)
               b(1) = ( -1.000000 -1.000000  1.000000 )  
               b(2) = (  1.000000  1.000000  1.000000 )  
               b(3) = ( -1.000000  1.000000 -1.000000 )  


     PseudoPot. # 1 for Ge read from file:
     ../../PP/Ge.pbe-dn-kjpaw_psl.0.2.2.UPF
     MD5 check sum: acf6dd3aa1b4e03129ff8bf786ac0282
     Pseudo is Projector augmented-wave + core cor, Zval = 14.0
     Generated using "atomic" code by A. Dal Corso v.5.0.2 svn rev. 9415
     Shape of augmentation charge: PSQ
     Using radial grid of 1207 points,  6 beta functions with: 
                l(1) =   0
                l(2) =   0
                l(3) =   1
                l(4) =   1
                l(5) =   2
                l(6) =   2
     Q(r) pseudized with 0 coefficients 


     atomic species   valence    mass     pseudopotential
        Ge            14.00    28.08600     Ge( 1.00)

     24 Sym. Ops. (no inversion) found
          (note: 24 additional sym.ops. were found but ignored
           their fractional translations are incommensurate with FFT grid)


   Cartesian axes

     site n.     atom                  positions (alat units)
         1           Ge  tau(   1) = (   0.0000000   0.0000000   0.0000000  )
         2           Ge  tau(   2) = (  -0.2500000   0.2500000   0.2500000  )

     number of k points=    16
                       cart. coord. in units 2pi/alat
        k(    1) = (   0.0000000   0.0000000   0.0000000), wk =   0.0092593
        k(    2) = (  -0.1666667   0.1666667  -0.1666667), wk =   0.0740741
        k(    3) = (  -0.3333333   0.3333333  -0.3333333), wk =   0.0740741
        k(    4) = (   0.5000000  -0.5000000   0.5000000), wk =   0.0370370
        k(    5) = (   0.0000000   0.3333333   0.0000000), wk =   0.0555556
        k(    6) = (  -0.1666667   0.5000000  -0.1666667), wk =   0.2222222
        k(    7) = (   0.6666667  -0.3333333   0.6666667), wk =   0.2222222
        k(    8) = (   0.5000000  -0.1666667   0.5000000), wk =   0.2222222
        k(    9) = (   0.3333333   0.0000000   0.3333333), wk =   0.1111111
        k(   10) = (   0.0000000   0.6666667   0.0000000), wk =   0.0555556
        k(   11) = (   0.8333333  -0.1666667   0.8333333), wk =   0.2222222
        k(   12) = (   0.6666667  -0.0000000   0.6666667), wk =   0.1111111
        k(   13) = (   0.0000000  -1.0000000   0.0000000), wk =   0.0277778
        k(   14) = (   0.6666667  -0.3333333   1.0000000), wk =   0.2222222
        k(   15) = (   0.5000000  -0.1666667   0.8333333), wk =   0.2222222
        k(   16) = (  -0.3333333  -1.0000000   0.0000000), wk =   0.1111111

     Dense  grid:     7119 G-vectors     FFT dimensions: (  27,  27,  27)

     Estimated max dynamical RAM per process >      31.37 MB

     Check: negative/imaginary core charge=   -0.000199    0.000000

     Initial potential from superposition of free atoms

     starting charge   27.99847, renormalised to   28.00000
     Starting wfcs are   18 randomized atomic wfcs
     Checking if some PAW data can be deallocated... 

     total cpu time spent up to now is        1.2 secs

     Self-consistent Calculation

     iteration #  1     ecut=    33.95 Ry     beta= 0.70
     Davidson diagonalization with overlap
     ethr =  1.00E-02,  avg # of iterations =  2.0

     Threshold (ethr) on eigenvalues was too large:
     Diagonalizing with lowered threshold

     Davidson diagonalization with overlap
     ethr =  1.54E-04,  avg # of iterations =  1.9

     total cpu time spent up to now is        2.1 secs

     total energy              =    -631.05159604 Ry
     Harris-Foulkes estimate   =    -631.06125843 Ry
     estimated scf accuracy    <       0.04388182 Ry

     iteration #  2     ecut=    33.95 Ry     beta= 0.70
     Davidson diagonalization with overlap
     ethr =  1.57E-04,  avg # of iterations =  1.2

     total cpu time spent up to now is        2.7 secs

     total energy              =    -631.05289882 Ry
     Harris-Foulkes estimate   =    -631.05309310 Ry
     estimated scf accuracy    <       0.00220454 Ry

     iteration #  3     ecut=    33.95 Ry     beta= 0.70
     Davidson diagonalization with overlap
     ethr =  7.87E-06,  avg # of iterations =  2.2

     total cpu time spent up to now is        3.3 secs

     total energy              =    -631.05309586 Ry
     Harris-Foulkes estimate   =    -631.05314782 Ry
     estimated scf accuracy    <       0.00008721 Ry

     iteration #  4     ecut=    33.95 Ry     beta= 0.70
     Davidson diagonalization with overlap
     ethr =  3.11E-07,  avg # of iterations =  2.2

     total cpu time spent up to now is        3.9 secs

     total energy              =    -631.05313068 Ry
     Harris-Foulkes estimate   =    -631.05313392 Ry
     estimated scf accuracy    <       0.00000930 Ry

     iteration #  5     ecut=    33.95 Ry     beta= 0.70
     Davidson diagonalization with overlap
     ethr =  3.32E-08,  avg # of iterations =  2.1

     total cpu time spent up to now is        4.6 secs

     total energy              =    -631.05313211 Ry
     Harris-Foulkes estimate   =    -631.05313216 Ry
     estimated scf accuracy    <       0.00000024 Ry

     iteration #  6     ecut=    33.95 Ry     beta= 0.70
     Davidson diagonalization with overlap
     ethr =  8.48E-10,  avg # of iterations =  2.8

     total cpu time spent up to now is        5.2 secs

     total energy              =    -631.05313215 Ry
     Harris-Foulkes estimate   =    -631.05313215 Ry
     estimated scf accuracy    <       0.00000002 Ry

     iteration #  7     ecut=    33.95 Ry     beta= 0.70
     Davidson diagonalization with overlap
     ethr =  6.23E-11,  avg # of iterations =  2.4

     total cpu time spent up to now is        5.8 secs

     End of self-consistent calculation

          k = 0.0000 0.0000 0.0000 (   893 PWs)   bands (ev):

   -14.5519 -14.5519 -14.5519 -14.4991 -14.4991 -14.2026 -14.2026 -14.2026
   -14.1680 -14.1680  -3.4016  10.5336  10.5336  10.5336

          k =-0.1667 0.1667-0.1667 (   911 PWs)   bands (ev):

   -14.5690 -14.5690 -14.5456 -14.4747 -14.4747 -14.2215 -14.2215 -14.2100
   -14.1548 -14.1548  -3.0176   7.3369   9.9069   9.9069

          k =-0.3333 0.3333-0.3333 (   896 PWs)   bands (ev):

   -14.5818 -14.5818 -14.5334 -14.4471 -14.4471 -14.2377 -14.2377 -14.2246
   -14.1418 -14.1418  -1.9379   3.9730   9.1638   9.1638

          k = 0.5000-0.5000 0.5000 (   886 PWs)   bands (ev):

   -14.5843 -14.5843 -14.5270 -14.4397 -14.4397 -14.2396 -14.2396 -14.2321
   -14.1392 -14.1392  -0.9414   2.1870   8.8935   8.8935

          k = 0.0000 0.3333 0.0000 (   897 PWs)   bands (ev):

   -14.5662 -14.5640 -14.5640 -14.4764 -14.4449 -14.2732 -14.1897 -14.1806
   -14.1806 -14.1487  -2.8867   7.5607   8.9868   8.9868

          k =-0.1667 0.5000-0.1667 (   875 PWs)   bands (ev):

   -14.5931 -14.5767 -14.5369 -14.4460 -14.4073 -14.3088 -14.2224 -14.1947
   -14.1520 -14.1301  -2.0180   4.8893   7.9241   8.2834

          k = 0.6667-0.3333 0.6667 (   886 PWs)   bands (ev):

   -14.6086 -14.5885 -14.5044 -14.4191 -14.4078 -14.2992 -14.2546 -14.2321
   -14.1330 -14.1136  -0.7625   2.5258   6.9969   8.2180

          k = 0.5000-0.1667 0.5000 (   889 PWs)   bands (ev):

   -14.6033 -14.5952 -14.4981 -14.4374 -14.4072 -14.2764 -14.2606 -14.2398
   -14.1242 -14.1228  -1.1648   3.1717   6.7184   8.7955

          k = 0.3333 0.0000 0.3333 (   887 PWs)   bands (ev):

   -14.5883 -14.5796 -14.5276 -14.4613 -14.4337 -14.2606 -14.2432 -14.1946
   -14.1564 -14.1313  -2.3914   5.6983   7.5244   9.7249

          k = 0.0000 0.6667 0.0000 (   866 PWs)   bands (ev):

   -14.5847 -14.5847 -14.5484 -14.4120 -14.3810 -14.3483 -14.2474 -14.1740
   -14.1379 -14.1379  -1.3689   4.1379   7.4663   7.4663

          k = 0.8333-0.1667 0.8333 (   895 PWs)   bands (ev):

   -14.6119 -14.5944 -14.5001 -14.4075 -14.3750 -14.3199 -14.2883 -14.2289
   -14.1232 -14.1079  -0.1259   2.4157   6.1284   7.2883

          k = 0.6667-0.0000 0.6667 (   893 PWs)   bands (ev):

   -14.6246 -14.5997 -14.4770 -14.3724 -14.3599 -14.3468 -14.3127 -14.2513
   -14.1170 -14.0964   0.0624   2.2156   5.2852   7.8161

          k = 0.0000-1.0000 0.0000 (   894 PWs)   bands (ev):

   -14.5959 -14.5959 -14.4836 -14.4825 -14.3298 -14.3286 -14.2491 -14.2479
   -14.1189 -14.1189   1.0488   1.0493   6.9269   6.9269

          k = 0.6667-0.3333 1.0000 (   878 PWs)   bands (ev):

   -14.6047 -14.6018 -14.4970 -14.4163 -14.3660 -14.3475 -14.2547 -14.2342
   -14.1181 -14.1178  -0.9629   3.4520   6.1943   7.6465

          k = 0.5000-0.1667 0.8333 (   884 PWs)   bands (ev):

   -14.6204 -14.6052 -14.4660 -14.3912 -14.3566 -14.3487 -14.2956 -14.2586
   -14.1132 -14.0993   0.0715   2.1558   5.6892   7.1212

          k =-0.3333-1.0000 0.0000 (   896 PWs)   bands (ev):

   -14.6138 -14.6136 -14.4386 -14.4376 -14.3369 -14.3358 -14.2858 -14.2847
   -14.1045 -14.1044   1.1577   1.1580   6.1232   6.1244

     highest occupied level (ev):    10.5336

!    total energy              =    -631.05313215 Ry
     Harris-Foulkes estimate   =    -631.05313215 Ry
     estimated scf accuracy    <          2.4E-09 Ry

     total all-electron energy =     -8395.966393 Ry

     The total energy is the sum of the following terms:

     one-electron contribution =    -269.38600761 Ry
     hartree contribution      =     156.82658488 Ry
     xc contribution           =    -113.90188063 Ry
     ewald contribution        =    -207.02204253 Ry
     one-center paw contrib.   =    -197.56978626 Ry

     convergence has been achieved in   7 iterations

     Forces acting on atoms (cartesian axes, Ry/au):

     atom    1 type  1   force =     0.00000000   -0.00000000    0.00000000
     atom    2 type  1   force =    -0.00000000   -0.00000000   -0.00000000

     Total force =     0.000000     Total SCF correction =     0.000000


     Computing stress (Cartesian axis) and pressure

          total   stress  (Ry/bohr**3)                   (kbar)     P=  187.84
   0.00127693  -0.00000000  -0.00000000        187.84     -0.00     -0.00
  -0.00000000   0.00127693   0.00000000         -0.00    187.84      0.00
  -0.00000000   0.00000000   0.00127693         -0.00      0.00    187.84


     Writing output data file germanium.save/
 
     init_run     :      0.54s CPU      0.55s WALL (       1 calls)
     electrons    :      4.58s CPU      4.60s WALL (       1 calls)
     forces       :      0.04s CPU      0.04s WALL (       1 calls)
     stress       :      0.11s CPU      0.11s WALL (       1 calls)

     Called by init_run:
     wfcinit      :      0.17s CPU      0.17s WALL (       1 calls)
     potinit      :      0.18s CPU      0.18s WALL (       1 calls)
     hinit0       :      0.18s CPU      0.19s WALL (       1 calls)

     Called by electrons:
     c_bands      :      2.76s CPU      2.78s WALL (       8 calls)
     sum_band     :      0.56s CPU      0.56s WALL (       8 calls)
     v_of_rho     :      0.03s CPU      0.04s WALL (       8 calls)
     newd         :      0.06s CPU      0.07s WALL (       8 calls)
     PAW_pot      :      1.34s CPU      1.34s WALL (       8 calls)
     mix_rho      :      0.00s CPU      0.00s WALL (       8 calls)

     Called by c_bands:
     init_us_2    :      0.04s CPU      0.05s WALL (     304 calls)
     cegterg      :      2.55s CPU      2.56s WALL (     128 calls)

     Called by sum_band:
     sum_band:bec :      0.00s CPU      0.00s WALL (     128 calls)
     addusdens    :      0.09s CPU      0.08s WALL (       8 calls)

     Called by *egterg:
     h_psi        :      2.26s CPU      2.26s WALL (     414 calls)
     s_psi        :      0.11s CPU      0.11s WALL (     414 calls)
     g_psi        :      0.00s CPU      0.01s WALL (     270 calls)
     cdiaghg      :      0.07s CPU      0.08s WALL (     382 calls)

     Called by h_psi:
     h_psi:pot    :      2.25s CPU      2.26s WALL (     414 calls)
     h_psi:calbec :      0.08s CPU      0.10s WALL (     414 calls)
     vloc_psi     :      2.07s CPU      2.05s WALL (     414 calls)
     add_vuspsi   :      0.10s CPU      0.11s WALL (     414 calls)

     General routines
     calbec       :      0.14s CPU      0.17s WALL (     622 calls)
     fft          :      0.02s CPU      0.02s WALL (     115 calls)
     ffts         :      0.00s CPU      0.00s WALL (       8 calls)
     fftw         :      2.38s CPU      2.35s WALL (   11032 calls)
 
     Parallel routines
 
     PWSCF        :     5.93s CPU         5.99s WALL

 
   This run was terminated on:  15:55:29  10May2022            

=------------------------------------------------------------------------------=
   JOB DONE.
=------------------------------------------------------------------------------=
