
     Program PWSCF v.6.3MaX starts on 10May2022 at 15:54:53 

     This program is part of the open-source Quantum ESPRESSO suite
     for quantum simulation of materials; please cite
         "P. Giannozzi et al., J. Phys.:Condens. Matter 21 395502 (2009);
         "P. Giannozzi et al., J. Phys.:Condens. Matter 29 465901 (2017);
          URL http://www.quantum-espresso.org", 
     in publications or presentations arising from this work. More details at
     http://www.quantum-espresso.org/quote

     Parallel version (MPI), running on     1 processors

     MPI processes distributed on     1 nodes
     Waiting for input...
     Reading input from standard input

     Current dimensions of program PWSCF are:
     Max number of different atomic species (ntypx) = 10
     Max number of k-points (npk) =  40000
     Max angular momentum in pseudopotentials (lmaxx) =  3
               file Ge.pbe-dn-kjpaw_psl.0.2.2.UPF: wavefunction(s)  4P 3D renormalized

     Subspace diagonalization in iterative solution of the eigenvalue problem:
     a serial algorithm will be used

 
     G-vector sticks info
     --------------------
     sticks:   dense  smooth     PW     G-vecs:    dense   smooth      PW
     Sum         349     349    121                 4285     4285     869
 


     bravais-lattice index     =            2
     lattice parameter (alat)  =      10.2000  a.u.
     unit-cell volume          =     265.3020 (a.u.)^3
     number of atoms/cell      =            2
     number of atomic types    =            1
     number of electrons       =        28.00
     number of Kohn-Sham states=           14
     kinetic-energy cutoff     =      24.4740  Ry
     charge density cutoff     =      97.8960  Ry
     convergence threshold     =      1.0E-08
     mixing beta               =       0.7000
     number of iterations used =            8  plain     mixing
     Exchange-correlation      = SLA PW PBX PBC ( 1  4  3  4 0 0)

     celldm(1)=  10.200000  celldm(2)=   0.000000  celldm(3)=   0.000000
     celldm(4)=   0.000000  celldm(5)=   0.000000  celldm(6)=   0.000000

     crystal axes: (cart. coord. in units of alat)
               a(1) = (  -0.500000   0.000000   0.500000 )  
               a(2) = (   0.000000   0.500000   0.500000 )  
               a(3) = (  -0.500000   0.500000   0.000000 )  

     reciprocal axes: (cart. coord. in units 2 pi/alat)
               b(1) = ( -1.000000 -1.000000  1.000000 )  
               b(2) = (  1.000000  1.000000  1.000000 )  
               b(3) = ( -1.000000  1.000000 -1.000000 )  


     PseudoPot. # 1 for Ge read from file:
     ../../PP/Ge.pbe-dn-kjpaw_psl.0.2.2.UPF
     MD5 check sum: acf6dd3aa1b4e03129ff8bf786ac0282
     Pseudo is Projector augmented-wave + core cor, Zval = 14.0
     Generated using "atomic" code by A. Dal Corso v.5.0.2 svn rev. 9415
     Shape of augmentation charge: PSQ
     Using radial grid of 1207 points,  6 beta functions with: 
                l(1) =   0
                l(2) =   0
                l(3) =   1
                l(4) =   1
                l(5) =   2
                l(6) =   2
     Q(r) pseudized with 0 coefficients 


     atomic species   valence    mass     pseudopotential
        Ge            14.00    28.08600     Ge( 1.00)

     48 Sym. Ops., with inversion, found (24 have fractional translation)



   Cartesian axes

     site n.     atom                  positions (alat units)
         1           Ge  tau(   1) = (   0.0000000   0.0000000   0.0000000  )
         2           Ge  tau(   2) = (  -0.2500000   0.2500000   0.2500000  )

     number of k points=    16
                       cart. coord. in units 2pi/alat
        k(    1) = (   0.0000000   0.0000000   0.0000000), wk =   0.0092593
        k(    2) = (  -0.1666667   0.1666667  -0.1666667), wk =   0.0740741
        k(    3) = (  -0.3333333   0.3333333  -0.3333333), wk =   0.0740741
        k(    4) = (   0.5000000  -0.5000000   0.5000000), wk =   0.0370370
        k(    5) = (   0.0000000   0.3333333   0.0000000), wk =   0.0555556
        k(    6) = (  -0.1666667   0.5000000  -0.1666667), wk =   0.2222222
        k(    7) = (   0.6666667  -0.3333333   0.6666667), wk =   0.2222222
        k(    8) = (   0.5000000  -0.1666667   0.5000000), wk =   0.2222222
        k(    9) = (   0.3333333   0.0000000   0.3333333), wk =   0.1111111
        k(   10) = (   0.0000000   0.6666667   0.0000000), wk =   0.0555556
        k(   11) = (   0.8333333  -0.1666667   0.8333333), wk =   0.2222222
        k(   12) = (   0.6666667  -0.0000000   0.6666667), wk =   0.1111111
        k(   13) = (   0.0000000  -1.0000000   0.0000000), wk =   0.0277778
        k(   14) = (   0.6666667  -0.3333333   1.0000000), wk =   0.2222222
        k(   15) = (   0.5000000  -0.1666667   0.8333333), wk =   0.2222222
        k(   16) = (  -0.3333333  -1.0000000   0.0000000), wk =   0.1111111

     Dense  grid:     4285 G-vectors     FFT dimensions: (  24,  24,  24)

     Estimated max dynamical RAM per process >      19.43 MB

     Check: negative/imaginary core charge=   -0.000153    0.000000

     Initial potential from superposition of free atoms

     starting charge   27.99847, renormalised to   28.00000
     Starting wfcs are   18 randomized atomic wfcs
     Checking if some PAW data can be deallocated... 

     total cpu time spent up to now is        1.1 secs

     Self-consistent Calculation

     iteration #  1     ecut=    24.47 Ry     beta= 0.70
     Davidson diagonalization with overlap
     ethr =  1.00E-02,  avg # of iterations =  2.0

     Threshold (ethr) on eigenvalues was too large:
     Diagonalizing with lowered threshold

     Davidson diagonalization with overlap
     ethr =  2.12E-04,  avg # of iterations =  1.8

     total cpu time spent up to now is        1.7 secs

     total energy              =    -630.65872317 Ry
     Harris-Foulkes estimate   =    -630.69125629 Ry
     estimated scf accuracy    <       0.06793889 Ry

     iteration #  2     ecut=    24.47 Ry     beta= 0.70
     Davidson diagonalization with overlap
     ethr =  2.43E-04,  avg # of iterations =  2.0

     total cpu time spent up to now is        2.2 secs

     total energy              =    -630.66836382 Ry
     Harris-Foulkes estimate   =    -630.67084858 Ry
     estimated scf accuracy    <       0.00470472 Ry

     iteration #  3     ecut=    24.47 Ry     beta= 0.70
     Davidson diagonalization with overlap
     ethr =  1.68E-05,  avg # of iterations =  2.2

     total cpu time spent up to now is        2.7 secs

     total energy              =    -630.66958989 Ry
     Harris-Foulkes estimate   =    -630.66977618 Ry
     estimated scf accuracy    <       0.00038024 Ry

     iteration #  4     ecut=    24.47 Ry     beta= 0.70
     Davidson diagonalization with overlap
     ethr =  1.36E-06,  avg # of iterations =  2.0

     total cpu time spent up to now is        3.1 secs

     total energy              =    -630.66968408 Ry
     Harris-Foulkes estimate   =    -630.66967786 Ry
     estimated scf accuracy    <       0.00000613 Ry

     iteration #  5     ecut=    24.47 Ry     beta= 0.70
     Davidson diagonalization with overlap
     ethr =  2.19E-08,  avg # of iterations =  2.8

     total cpu time spent up to now is        3.6 secs

     total energy              =    -630.66968517 Ry
     Harris-Foulkes estimate   =    -630.66968510 Ry
     estimated scf accuracy    <       0.00000003 Ry

     iteration #  6     ecut=    24.47 Ry     beta= 0.70
     Davidson diagonalization with overlap
     ethr =  1.13E-10,  avg # of iterations =  3.6

     total cpu time spent up to now is        4.0 secs

     End of self-consistent calculation

          k = 0.0000 0.0000 0.0000 (   537 PWs)   bands (ev):

   -15.1554 -15.1554 -15.1554 -14.9700 -14.9700 -14.7768 -14.7768 -14.6807
   -14.6807 -14.6807  -3.4139  10.5120  10.5120  10.5120

          k =-0.1667 0.1667-0.1667 (   540 PWs)   bands (ev):

   -15.1661 -15.1519 -15.1519 -14.9517 -14.9517 -14.7752 -14.7629 -14.7629
   -14.6578 -14.6578  -3.0306   7.3098   9.8895   9.8895

          k =-0.3333 0.3333-0.3333 (   555 PWs)   bands (ev):

   -15.1773 -15.1773 -15.1022 -15.0452 -15.0452 -14.7993 -14.7993 -14.7548
   -14.7022 -14.7022  -1.9531   3.9510   9.1515   9.1515

          k = 0.5000-0.5000 0.5000 (   544 PWs)   bands (ev):

   -15.1339 -15.0748 -15.0748 -15.0418 -15.0418 -14.7421 -14.7301 -14.7301
   -14.6879 -14.6879  -0.9594   2.1692   8.8835   8.8835

          k = 0.0000 0.3333 0.0000 (   548 PWs)   bands (ev):

   -15.1741 -15.1663 -15.1663 -15.0290 -14.9389 -14.8248 -14.7864 -14.7220
   -14.7220 -14.6729  -2.8999   7.5286   8.9715   8.9715

          k =-0.1667 0.5000-0.1667 (   545 PWs)   bands (ev):

   -15.1743 -15.1735 -15.1146 -14.9729 -14.9428 -14.8387 -14.7844 -14.7302
   -14.6664 -14.6323  -2.0328   4.8647   7.9038   8.2718

          k = 0.6667-0.3333 0.6667 (   540 PWs)   bands (ev):

   -15.1600 -15.1286 -15.0602 -14.9528 -14.9494 -14.8167 -14.7779 -14.7584
   -14.6404 -14.6010  -0.7801   2.5064   6.9764   8.2082

          k = 0.5000-0.1667 0.5000 (   541 PWs)   bands (ev):

   -15.1719 -15.1415 -15.0283 -15.0043 -14.9753 -14.8003 -14.7796 -14.7714
   -14.6046 -14.6034  -1.1814   3.1508   6.6987   8.7844

          k = 0.3333 0.0000 0.3333 (   542 PWs)   bands (ev):

   -15.1709 -15.1524 -15.0895 -15.0137 -14.9854 -14.7954 -14.7656 -14.7498
   -14.6336 -14.6158  -2.4055   5.6724   7.5053   9.7102

          k = 0.0000 0.6667 0.0000 (   556 PWs)   bands (ev):

   -15.1896 -15.1896 -15.1415 -14.9707 -14.9316 -14.9087 -14.8690 -14.7825
   -14.6550 -14.6550  -1.3845   4.1123   7.4575   7.4575

          k = 0.8333-0.1667 0.8333 (   536 PWs)   bands (ev):

   -15.1593 -15.1237 -15.0628 -14.9181 -14.8750 -14.8592 -14.7875 -14.7668
   -14.5630 -14.5568  -0.1437   2.3940   6.1130   7.2809

          k = 0.6667-0.0000 0.6667 (   528 PWs)   bands (ev):

   -15.1551 -15.1313 -14.9754 -14.9076 -14.8572 -14.8241 -14.7942 -14.7235
   -14.5828 -14.5140   0.0439   2.1949   5.2676   7.8074

          k = 0.0000-1.0000 0.0000 (   524 PWs)   bands (ev):

   -15.0982 -15.0982 -15.0117 -15.0117 -14.7655 -14.7655 -14.7443 -14.7443
   -14.5059 -14.5059   1.0294   1.0294   6.9209   6.9209

          k = 0.6667-0.3333 1.0000 (   541 PWs)   bands (ev):

   -15.1678 -15.1659 -15.0565 -14.9405 -14.9258 -14.8806 -14.7603 -14.7390
   -14.6283 -14.6101  -0.9794   3.4291   6.1771   7.6323

          k = 0.5000-0.1667 0.8333 (   544 PWs)   bands (ev):

   -15.1865 -15.1730 -15.0221 -14.9469 -14.9136 -14.8710 -14.8267 -14.7962
   -14.6429 -14.5780   0.0529   2.1356   5.6710   7.1070

          k =-0.3333-1.0000 0.0000 (   534 PWs)   bands (ev):

   -15.1685 -15.1685 -14.9610 -14.9610 -14.8303 -14.8303 -14.7883 -14.7883
   -14.5572 -14.5572   1.1380   1.1380   6.1089   6.1089

     highest occupied level (ev):    10.5120

!    total energy              =    -630.66968520 Ry
     Harris-Foulkes estimate   =    -630.66968520 Ry
     estimated scf accuracy    <          1.6E-09 Ry

     total all-electron energy =     -8395.582946 Ry

     The total energy is the sum of the following terms:

     one-electron contribution =    -268.14741969 Ry
     hartree contribution      =     155.75976699 Ry
     xc contribution           =    -113.60737925 Ry
     ewald contribution        =    -207.02204251 Ry
     one-center paw contrib.   =    -197.65261074 Ry

     convergence has been achieved in   6 iterations

     Forces acting on atoms (cartesian axes, Ry/au):

     atom    1 type  1   force =    -0.00000000   -0.00000000    0.00000000
     atom    2 type  1   force =     0.00000000    0.00000000   -0.00000000

     Total force =     0.000000     Total SCF correction =     0.000000


     Computing stress (Cartesian axis) and pressure

          total   stress  (Ry/bohr**3)                   (kbar)     P=-1173.23
  -0.00797543   0.00000000   0.00000000      -1173.23      0.00      0.00
   0.00000000  -0.00797543   0.00000000          0.00  -1173.23      0.00
  -0.00000000   0.00000000  -0.00797543         -0.00      0.00  -1173.23


     Writing output data file germanium.save/
 
     init_run     :      0.44s CPU      0.45s WALL (       1 calls)
     electrons    :      2.91s CPU      2.94s WALL (       1 calls)
     forces       :      0.03s CPU      0.03s WALL (       1 calls)
     stress       :      0.07s CPU      0.07s WALL (       1 calls)

     Called by init_run:
     wfcinit      :      0.10s CPU      0.10s WALL (       1 calls)
     potinit      :      0.18s CPU      0.18s WALL (       1 calls)
     hinit0       :      0.16s CPU      0.17s WALL (       1 calls)

     Called by electrons:
     c_bands      :      1.56s CPU      1.58s WALL (       7 calls)
     sum_band     :      0.29s CPU      0.30s WALL (       7 calls)
     v_of_rho     :      0.02s CPU      0.02s WALL (       7 calls)
     newd         :      0.03s CPU      0.04s WALL (       7 calls)
     PAW_pot      :      1.18s CPU      1.17s WALL (       7 calls)
     mix_rho      :      0.00s CPU      0.00s WALL (       7 calls)

     Called by c_bands:
     init_us_2    :      0.03s CPU      0.03s WALL (     272 calls)
     cegterg      :      1.46s CPU      1.47s WALL (     112 calls)

     Called by sum_band:
     sum_band:bec :      0.00s CPU      0.00s WALL (     112 calls)
     addusdens    :      0.04s CPU      0.04s WALL (       7 calls)

     Called by *egterg:
     h_psi        :      1.25s CPU      1.25s WALL (     390 calls)
     s_psi        :      0.06s CPU      0.06s WALL (     390 calls)
     g_psi        :      0.00s CPU      0.00s WALL (     262 calls)
     cdiaghg      :      0.07s CPU      0.08s WALL (     358 calls)

     Called by h_psi:
     h_psi:pot    :      1.24s CPU      1.25s WALL (     390 calls)
     h_psi:calbec :      0.04s CPU      0.06s WALL (     390 calls)
     vloc_psi     :      1.16s CPU      1.12s WALL (     390 calls)
     add_vuspsi   :      0.04s CPU      0.06s WALL (     390 calls)

     General routines
     calbec       :      0.07s CPU      0.10s WALL (     582 calls)
     fft          :      0.00s CPU      0.01s WALL (     104 calls)
     ffts         :      0.00s CPU      0.00s WALL (       7 calls)
     fftw         :      1.30s CPU      1.27s WALL (   10308 calls)
 
     Parallel routines
 
     PWSCF        :     4.12s CPU         4.18s WALL

 
   This run was terminated on:  15:54:57  10May2022            

=------------------------------------------------------------------------------=
   JOB DONE.
=------------------------------------------------------------------------------=
