
     Program Q2R v.6.3MaX starts on 12May2022 at 16: 2:27 

     This program is part of the open-source Quantum ESPRESSO suite
     for quantum simulation of materials; please cite
         "P. Giannozzi et al., J. Phys.:Condens. Matter 21 395502 (2009);
         "P. Giannozzi et al., J. Phys.:Condens. Matter 29 465901 (2017);
          URL http://www.quantum-espresso.org", 
     in publications or presentations arising from this work. More details at
     http://www.quantum-espresso.org/quote

     Parallel version (MPI), running on     1 processors

     MPI processes distributed on     1 nodes

     reading grid info from file ge.dyn.0    
  reading force constants from file ge.dyn.1
 macroscopic fields = T
 551.45337   0.00000   0.00000
   0.00000 551.45337   0.00000
   0.00000   0.000003388.05159
  na=            1
   0.57357   0.00000   0.00000
   0.00000   0.57357   0.00000
   0.00000   0.00000  -1.46445
  na=            2
   0.57357   0.00000   0.00000
   0.00000   0.57357   0.00000
   0.00000   0.00000  -1.46445
  nqs=            1
 q=   0.00000000  0.00000000  0.00000000
  reading force constants from file ge.dyn.2
  nqs=            4
 q=   0.12431294  0.12431294  0.00000000
 q=  -0.12431294 -0.12431294  0.00000000
 q=  -0.12431294  0.12431294  0.00000000
 q=   0.12431294 -0.12431294  0.00000000
  reading force constants from file ge.dyn.3
  nqs=            4
 q=   0.24862588  0.24862588  0.00000000
 q=  -0.24862588 -0.24862588  0.00000000
 q=  -0.24862588  0.24862588  0.00000000
 q=   0.24862588 -0.24862588  0.00000000
  reading force constants from file ge.dyn.4
  nqs=            2
 q=  -0.37293882 -0.37293882  0.00000000
 q=  -0.37293882  0.37293882  0.00000000
  reading force constants from file ge.dyn.5
  nqs=            8
 q=   0.12431294  0.00000000  0.26188047
 q=   0.00000000  0.12431294  0.26188047
 q=   0.00000000  0.12431294 -0.26188047
 q=  -0.12431294  0.00000000  0.26188047
 q=   0.00000000 -0.12431294  0.26188047
 q=  -0.12431294  0.00000000 -0.26188047
 q=   0.00000000 -0.12431294 -0.26188047
 q=   0.12431294  0.00000000 -0.26188047
  reading force constants from file ge.dyn.6
  nqs=           16
 q=   0.24862588  0.12431294  0.26188047
 q=   0.24862588 -0.12431294  0.26188047
 q=   0.12431294  0.24862588  0.26188047
 q=   0.12431294  0.24862588 -0.26188047
 q=  -0.24862588 -0.12431294  0.26188047
 q=  -0.12431294 -0.24862588  0.26188047
 q=  -0.24862588 -0.12431294 -0.26188047
 q=  -0.12431294 -0.24862588 -0.26188047
 q=   0.24862588  0.12431294 -0.26188047
 q=  -0.12431294  0.24862588  0.26188047
 q=  -0.24862588  0.12431294 -0.26188047
 q=  -0.24862588  0.12431294  0.26188047
 q=   0.12431294 -0.24862588  0.26188047
 q=   0.24862588 -0.12431294 -0.26188047
 q=  -0.12431294  0.24862588 -0.26188047
 q=   0.12431294 -0.24862588 -0.26188047
  reading force constants from file ge.dyn.7
  nqs=           16
 q=   0.37293882  0.24862588  0.26188047
 q=   0.37293882 -0.24862588  0.26188047
 q=   0.24862588  0.37293882  0.26188047
 q=   0.24862588  0.37293882 -0.26188047
 q=  -0.37293882 -0.24862588  0.26188047
 q=  -0.24862588 -0.37293882  0.26188047
 q=  -0.37293882 -0.24862588 -0.26188047
 q=  -0.24862588 -0.37293882 -0.26188047
 q=   0.37293882  0.24862588 -0.26188047
 q=  -0.24862588  0.37293882  0.26188047
 q=  -0.37293882  0.24862588 -0.26188047
 q=  -0.37293882  0.24862588  0.26188047
 q=   0.24862588 -0.37293882  0.26188047
 q=   0.37293882 -0.24862588 -0.26188047
 q=  -0.24862588  0.37293882 -0.26188047
 q=   0.24862588 -0.37293882 -0.26188047
  reading force constants from file ge.dyn.8
  nqs=            8
 q=   0.24862588  0.00000000  0.52376094
 q=   0.00000000  0.24862588  0.52376094
 q=   0.00000000  0.24862588 -0.52376094
 q=  -0.24862588  0.00000000  0.52376094
 q=   0.00000000 -0.24862588  0.52376094
 q=  -0.24862588  0.00000000 -0.52376094
 q=   0.00000000 -0.24862588 -0.52376094
 q=   0.24862588  0.00000000 -0.52376094
  reading force constants from file ge.dyn.9
  nqs=           16
 q=   0.37293882  0.12431294  0.52376094
 q=   0.37293882 -0.12431294  0.52376094
 q=   0.12431294  0.37293882  0.52376094
 q=   0.12431294  0.37293882 -0.52376094
 q=  -0.37293882 -0.12431294  0.52376094
 q=  -0.12431294 -0.37293882  0.52376094
 q=  -0.37293882 -0.12431294 -0.52376094
 q=  -0.12431294 -0.37293882 -0.52376094
 q=   0.37293882  0.12431294 -0.52376094
 q=  -0.12431294  0.37293882  0.52376094
 q=  -0.37293882  0.12431294 -0.52376094
 q=  -0.37293882  0.12431294  0.52376094
 q=   0.12431294 -0.37293882  0.52376094
 q=   0.37293882 -0.12431294 -0.52376094
 q=  -0.12431294  0.37293882 -0.52376094
 q=   0.12431294 -0.37293882 -0.52376094
  reading force constants from file ge.dyn.10
  nqs=            8
 q=   0.49725177  0.24862588  0.52376094
 q=   0.24862588  0.49725177  0.52376094
 q=   0.24862588  0.49725177 -0.52376094
 q=   0.49725177 -0.24862588  0.52376094
 q=  -0.24862588 -0.49725177 -0.52376094
 q=  -0.49725177  0.24862588 -0.52376094
 q=  -0.49725177  0.24862588  0.52376094
 q=   0.49725177 -0.24862588 -0.52376094
  reading force constants from file ge.dyn.11
  nqs=            8
 q=   0.12431294 -0.12431294  0.52376094
 q=  -0.12431294  0.12431294  0.52376094
 q=  -0.12431294  0.12431294 -0.52376094
 q=   0.12431294  0.12431294  0.52376094
 q=   0.12431294 -0.12431294 -0.52376094
 q=  -0.12431294 -0.12431294 -0.52376094
 q=  -0.12431294 -0.12431294  0.52376094
 q=   0.12431294  0.12431294 -0.52376094
  reading force constants from file ge.dyn.12
  nqs=            4
 q=  -0.37293882  0.00000000 -0.78564141
 q=   0.37293882  0.00000000 -0.78564141
 q=   0.00000000  0.37293882 -0.78564141
 q=   0.00000000 -0.37293882 -0.78564141
  reading force constants from file ge.dyn.13
  nqs=           16
 q=  -0.24862588  0.12431294 -0.78564141
 q=  -0.24862588 -0.12431294 -0.78564141
 q=   0.24862588 -0.12431294  0.78564141
 q=   0.24862588  0.12431294  0.78564141
 q=   0.24862588 -0.12431294 -0.78564141
 q=  -0.12431294  0.24862588 -0.78564141
 q=   0.12431294 -0.24862588 -0.78564141
 q=  -0.12431294  0.24862588  0.78564141
 q=  -0.24862588  0.12431294  0.78564141
 q=  -0.12431294 -0.24862588 -0.78564141
 q=   0.12431294 -0.24862588  0.78564141
 q=   0.24862588  0.12431294 -0.78564141
 q=   0.12431294  0.24862588 -0.78564141
 q=  -0.24862588 -0.12431294  0.78564141
 q=  -0.12431294 -0.24862588  0.78564141
 q=   0.12431294  0.24862588  0.78564141
  reading force constants from file ge.dyn.14
  nqs=            8
 q=   0.24862588  0.24862588  0.52376094
 q=  -0.24862588 -0.24862588 -0.52376094
 q=  -0.24862588  0.24862588 -0.52376094
 q=  -0.24862588 -0.24862588  0.52376094
 q=   0.24862588 -0.24862588  0.52376094
 q=   0.24862588  0.24862588 -0.52376094
 q=  -0.24862588  0.24862588  0.52376094
 q=   0.24862588 -0.24862588 -0.52376094
  reading force constants from file ge.dyn.15
  nqs=            4
 q=   0.37293882  0.37293882  0.52376094
 q=  -0.37293882 -0.37293882 -0.52376094
 q=  -0.37293882  0.37293882 -0.52376094
 q=   0.37293882 -0.37293882  0.52376094
  reading force constants from file ge.dyn.16
  nqs=            2
 q=   0.00000000  0.00000000  0.52376094
 q=   0.00000000  0.00000000 -0.52376094
  reading force constants from file ge.dyn.17
  nqs=            8
 q=   0.37293882  0.24862588  0.78564141
 q=  -0.37293882 -0.24862588  0.78564141
 q=  -0.24862588 -0.37293882  0.78564141
 q=   0.37293882 -0.24862588  0.78564141
 q=  -0.24862588  0.37293882  0.78564141
 q=  -0.37293882  0.24862588  0.78564141
 q=   0.24862588 -0.37293882  0.78564141
 q=   0.24862588  0.37293882  0.78564141
  reading force constants from file ge.dyn.18
  nqs=            8
 q=   0.00000000 -0.12431294  0.78564141
 q=   0.00000000  0.12431294  0.78564141
 q=   0.12431294  0.00000000  0.78564141
 q=   0.00000000 -0.12431294 -0.78564141
 q=  -0.12431294  0.00000000  0.78564141
 q=  -0.12431294  0.00000000 -0.78564141
 q=   0.00000000  0.12431294 -0.78564141
 q=   0.12431294  0.00000000 -0.78564141
  reading force constants from file ge.dyn.19
  nqs=            8
 q=  -0.74587765 -0.24862588 -0.52376094
 q=   0.74587765  0.24862588 -0.52376094
 q=   0.24862588  0.74587765 -0.52376094
 q=   0.74587765 -0.24862588  0.52376094
 q=  -0.24862588  0.74587765 -0.52376094
 q=  -0.24862588 -0.74587765  0.52376094
 q=   0.74587765  0.24862588  0.52376094
 q=   0.24862588  0.74587765  0.52376094
  reading force constants from file ge.dyn.20
  nqs=            8
 q=  -0.62156471 -0.12431294 -0.52376094
 q=   0.62156471  0.12431294 -0.52376094
 q=   0.62156471 -0.12431294 -0.52376094
 q=  -0.62156471  0.12431294 -0.52376094
 q=   0.62156471 -0.12431294  0.52376094
 q=  -0.62156471 -0.12431294  0.52376094
 q=  -0.12431294 -0.62156471  0.52376094
 q=  -0.62156471  0.12431294  0.52376094
  reading force constants from file ge.dyn.21
  nqs=            8
 q=   0.00000000  0.37293882 -0.26188047
 q=   0.00000000 -0.37293882 -0.26188047
 q=  -0.37293882  0.00000000 -0.26188047
 q=   0.00000000  0.37293882  0.26188047
 q=   0.37293882  0.00000000 -0.26188047
 q=   0.37293882  0.00000000  0.26188047
 q=   0.00000000 -0.37293882  0.26188047
 q=  -0.37293882  0.00000000  0.26188047
  reading force constants from file ge.dyn.22
  nqs=           16
 q=  -0.62156471 -0.24862588 -0.26188047
 q=   0.62156471 -0.24862588 -0.26188047
 q=   0.62156471  0.24862588 -0.26188047
 q=   0.24862588  0.62156471 -0.26188047
 q=  -0.62156471  0.24862588 -0.26188047
 q=   0.24862588 -0.62156471 -0.26188047
 q=   0.62156471 -0.24862588  0.26188047
 q=  -0.24862588  0.62156471 -0.26188047
 q=  -0.62156471 -0.24862588  0.26188047
 q=  -0.24862588 -0.62156471 -0.26188047
 q=  -0.24862588 -0.62156471  0.26188047
 q=   0.62156471  0.24862588  0.26188047
 q=   0.24862588  0.62156471  0.26188047
 q=  -0.62156471  0.24862588  0.26188047
 q=   0.24862588 -0.62156471  0.26188047
 q=  -0.24862588  0.62156471  0.26188047
  reading force constants from file ge.dyn.23
  nqs=            4
 q=   0.00000000  0.24862588  0.00000000
 q=   0.00000000 -0.24862588  0.00000000
 q=  -0.24862588  0.00000000  0.00000000
 q=   0.24862588  0.00000000  0.00000000
  reading force constants from file ge.dyn.24
  nqs=            8
 q=   0.12431294  0.37293882  0.00000000
 q=  -0.12431294  0.37293882  0.00000000
 q=   0.12431294 -0.37293882  0.00000000
 q=  -0.37293882  0.12431294  0.00000000
 q=  -0.12431294 -0.37293882  0.00000000
 q=   0.37293882 -0.12431294  0.00000000
 q=  -0.37293882 -0.12431294  0.00000000
 q=   0.37293882  0.12431294  0.00000000
  reading force constants from file ge.dyn.25
  nqs=            4
 q=  -0.49725177 -0.24862588  0.00000000
 q=  -0.49725177  0.24862588  0.00000000
 q=   0.49725177  0.24862588  0.00000000
 q=  -0.24862588  0.49725177  0.00000000
  reading force constants from file ge.dyn.26
  nqs=            2
 q=   0.00000000  0.00000000  1.04752188
 q=   0.00000000  0.00000000 -1.04752188
  reading force constants from file ge.dyn.27
  nqs=            8
 q=  -0.74587765 -0.12431294 -0.26188047
 q=  -0.74587765  0.12431294 -0.26188047
 q=   0.12431294 -0.74587765 -0.26188047
 q=  -0.12431294  0.74587765 -0.26188047
 q=   0.74587765 -0.12431294  0.26188047
 q=  -0.12431294 -0.74587765  0.26188047
 q=   0.74587765  0.12431294  0.26188047
 q=   0.12431294  0.74587765  0.26188047
  reading force constants from file ge.dyn.28
  nqs=            4
 q=   0.00000000  0.49725177  0.00000000
 q=   0.00000000 -0.49725177  0.00000000
 q=   0.49725177  0.00000000  0.00000000
 q=  -0.49725177  0.00000000  0.00000000
  reading force constants from file ge.dyn.29
  nqs=            4
 q=  -0.62156471 -0.12431294  0.00000000
 q=   0.62156471  0.12431294  0.00000000
 q=  -0.12431294  0.62156471  0.00000000
 q=  -0.62156471  0.12431294  0.00000000
  reading force constants from file ge.dyn.30
  nqs=            1
 q=  -0.74587765 -0.74587765 -1.57128283

      q-space grid ok, #points =  216

      fft-check success (sum of imaginary terms < 10^-12)
 
     Q2R          :     0.02s CPU         0.03s WALL

 
   This run was terminated on:  16: 2:27  12May2022            

=------------------------------------------------------------------------------=
   JOB DONE.
=------------------------------------------------------------------------------=
