
     Program PWSCF v.6.3MaX starts on 12May2022 at 10:50:24 

     This program is part of the open-source Quantum ESPRESSO suite
     for quantum simulation of materials; please cite
         "P. Giannozzi et al., J. Phys.:Condens. Matter 21 395502 (2009);
         "P. Giannozzi et al., J. Phys.:Condens. Matter 29 465901 (2017);
          URL http://www.quantum-espresso.org", 
     in publications or presentations arising from this work. More details at
     http://www.quantum-espresso.org/quote

     Parallel version (MPI), running on    12 processors

     MPI processes distributed on     1 nodes
     R & G space division:  proc/nbgrp/npool/nimage =      12
     Waiting for input...
     Reading input from standard input

     Current dimensions of program PWSCF are:
     Max number of different atomic species (ntypx) = 10
     Max number of k-points (npk) =  40000
     Max angular momentum in pseudopotentials (lmaxx) =  3
               file Ge.pbe-dn-kjpaw_psl.0.2.2.UPF: wavefunction(s)  4P 3D renormalized

     Subspace diagonalization in iterative solution of the eigenvalue problem:
     one sub-group per band group will be used
     scalapack distributed-memory algorithm (size of sub-group:  2*  2 procs)

 
     Parallelization info
     --------------------
     sticks:   dense  smooth     PW     G-vecs:    dense   smooth      PW
     Min          34      34     13                  650      650     160
     Max          35      35     14                  654      654     163
     Sum         413     413    165                 7821     7821    1933
 


     bravais-lattice index     =            0
     lattice parameter (alat)  =       7.8793  a.u.
     unit-cell volume          =     279.7989 (a.u.)^3
     number of atoms/cell      =            2
     number of atomic types    =            1
     number of electrons       =        28.00
     number of Kohn-Sham states=           14
     kinetic-energy cutoff     =      35.0000  Ry
     charge density cutoff     =     140.0000  Ry
     convergence threshold     =      1.0E-08
     mixing beta               =       0.7000
     number of iterations used =            8  plain     mixing
     Exchange-correlation      = SLA PW PBX PBC ( 1  4  3  4 0 0)

     celldm(1)=   7.879316  celldm(2)=   0.000000  celldm(3)=   0.000000
     celldm(4)=   0.000000  celldm(5)=   0.000000  celldm(6)=   0.000000

     crystal axes: (cart. coord. in units of alat)
               a(1) = (  -0.670351   0.670351   0.318211 )  
               a(2) = (   0.670351  -0.670351   0.318211 )  
               a(3) = (   0.670351   0.670351  -0.318211 )  

     reciprocal axes: (cart. coord. in units 2 pi/alat)
               b(1) = (  0.000000  0.745878  1.571283 )  
               b(2) = (  0.745878  0.000000  1.571283 )  
               b(3) = (  0.745878  0.745878  0.000000 )  


     PseudoPot. # 1 for Ge read from file:
     ../PP/Ge.pbe-dn-kjpaw_psl.0.2.2.UPF
     MD5 check sum: acf6dd3aa1b4e03129ff8bf786ac0282
     Pseudo is Projector augmented-wave + core cor, Zval = 14.0
     Generated using "atomic" code by A. Dal Corso v.5.0.2 svn rev. 9415
     Shape of augmentation charge: PSQ
     Using radial grid of 1207 points,  6 beta functions with: 
                l(1) =   0
                l(2) =   0
                l(3) =   1
                l(4) =   1
                l(5) =   2
                l(6) =   2
     Q(r) pseudized with 0 coefficients 


     atomic species   valence    mass     pseudopotential
        Ge            14.00    72.64000     Ge( 1.00)

     16 Sym. Ops., with inversion, found (12 have fractional translation)



   Cartesian axes

     site n.     atom                  positions (alat units)
         1           Ge  tau(   1) = (  -0.0000000   1.0055268   0.0795528  )
         2           Ge  tau(   2) = (   0.6703512  -0.3351756   0.2386585  )

     number of k points=    30
                       cart. coord. in units 2pi/alat
        k(    1) = (   0.0000000   0.0000000   0.0000000), wk =   0.0092593
        k(    2) = (   0.1243129   0.1243129   0.0000000), wk =   0.0370370
        k(    3) = (   0.2486259   0.2486259   0.0000000), wk =   0.0370370
        k(    4) = (  -0.3729388  -0.3729388   0.0000000), wk =   0.0185185
        k(    5) = (   0.1243129   0.0000000   0.2618805), wk =   0.0740741
        k(    6) = (   0.2486259   0.1243129   0.2618805), wk =   0.1481481
        k(    7) = (   0.3729388   0.2486259   0.2618805), wk =   0.1481481
        k(    8) = (   0.2486259   0.0000000   0.5237609), wk =   0.0740741
        k(    9) = (   0.3729388   0.1243129   0.5237609), wk =   0.1481481
        k(   10) = (   0.4972518   0.2486259   0.5237609), wk =   0.0740741
        k(   11) = (   0.1243129  -0.1243129   0.5237609), wk =   0.0740741
        k(   12) = (  -0.3729388   0.0000000  -0.7856414), wk =   0.0370370
        k(   13) = (  -0.2486259   0.1243129  -0.7856414), wk =   0.1481481
        k(   14) = (   0.2486259   0.2486259   0.5237609), wk =   0.0740741
        k(   15) = (   0.3729388   0.3729388   0.5237609), wk =   0.0370370
        k(   16) = (   0.0000000   0.0000000   0.5237609), wk =   0.0185185
        k(   17) = (   0.3729388   0.2486259   0.7856414), wk =   0.0740741
        k(   18) = (  -0.0000000  -0.1243129   0.7856414), wk =   0.0740741
        k(   19) = (  -0.7458776  -0.2486259  -0.5237609), wk =   0.0740741
        k(   20) = (  -0.6215647  -0.1243129  -0.5237609), wk =   0.0740741
        k(   21) = (  -0.0000000   0.3729388  -0.2618805), wk =   0.0740741
        k(   22) = (  -0.6215647  -0.2486259  -0.2618805), wk =   0.1481481
        k(   23) = (   0.0000000   0.2486259   0.0000000), wk =   0.0370370
        k(   24) = (   0.1243129   0.3729388   0.0000000), wk =   0.0740741
        k(   25) = (  -0.4972518  -0.2486259   0.0000000), wk =   0.0370370
        k(   26) = (  -0.0000000  -0.0000000   1.0475219), wk =   0.0185185
        k(   27) = (  -0.7458776  -0.1243129  -0.2618805), wk =   0.0740741
        k(   28) = (  -0.0000000   0.4972518  -0.0000000), wk =   0.0370370
        k(   29) = (  -0.6215647  -0.1243129  -0.0000000), wk =   0.0370370
        k(   30) = (  -0.7458776  -0.7458776  -1.5712828), wk =   0.0092593

     Dense  grid:     7821 G-vectors     FFT dimensions: (  30,  30,  30)

     Estimated max dynamical RAM per process >       4.22 MB

     Estimated total dynamical RAM >      50.70 MB

     Check: negative/imaginary core charge=   -0.000166    0.000000

     Initial potential from superposition of free atoms

     starting charge   27.99847, renormalised to   28.00000
     Starting wfcs are   18 randomized atomic wfcs
     Checking if some PAW data can be deallocated... 

     total cpu time spent up to now is        1.2 secs

     Self-consistent Calculation

     iteration #  1     ecut=    35.00 Ry     beta= 0.70
     Davidson diagonalization with overlap
     ethr =  1.00E-02,  avg # of iterations =  1.8

     Threshold (ethr) on eigenvalues was too large:
     Diagonalizing with lowered threshold

     Davidson diagonalization with overlap
     ethr =  2.39E-05,  avg # of iterations =  3.6

     total cpu time spent up to now is        1.7 secs

     total energy              =    -631.01012978 Ry
     Harris-Foulkes estimate   =    -631.01191156 Ry
     estimated scf accuracy    <       0.00671632 Ry

     iteration #  2     ecut=    35.00 Ry     beta= 0.70
     Davidson diagonalization with overlap
     ethr =  2.40E-05,  avg # of iterations =  2.0

     total cpu time spent up to now is        2.0 secs

     total energy              =    -631.01096085 Ry
     Harris-Foulkes estimate   =    -631.01115473 Ry
     estimated scf accuracy    <       0.00066379 Ry

     iteration #  3     ecut=    35.00 Ry     beta= 0.70
     Davidson diagonalization with overlap
     ethr =  2.37E-06,  avg # of iterations =  2.4

     total cpu time spent up to now is        2.3 secs

     total energy              =    -631.01109341 Ry
     Harris-Foulkes estimate   =    -631.01111340 Ry
     estimated scf accuracy    <       0.00007913 Ry

     iteration #  4     ecut=    35.00 Ry     beta= 0.70
     Davidson diagonalization with overlap
     ethr =  2.83E-07,  avg # of iterations =  2.5

     total cpu time spent up to now is        2.7 secs

     total energy              =    -631.01110735 Ry
     Harris-Foulkes estimate   =    -631.01110713 Ry
     estimated scf accuracy    <       0.00000111 Ry

     iteration #  5     ecut=    35.00 Ry     beta= 0.70
     Davidson diagonalization with overlap
     ethr =  3.95E-09,  avg # of iterations =  3.4

     total cpu time spent up to now is        3.0 secs

     total energy              =    -631.01110768 Ry
     Harris-Foulkes estimate   =    -631.01110768 Ry
     estimated scf accuracy    <       0.00000002 Ry

     iteration #  6     ecut=    35.00 Ry     beta= 0.70
     Davidson diagonalization with overlap
     ethr =  5.39E-11,  avg # of iterations =  3.6

     total cpu time spent up to now is        3.4 secs

     End of self-consistent calculation

          k = 0.0000 0.0000 0.0000 (   969 PWs)   bands (ev):

   -15.2357 -15.2158 -15.1886 -15.1326 -15.0403 -15.0331 -15.0331 -15.0318
   -15.0318 -15.0072  -3.0033   3.5464   6.8838   6.8838

          k = 0.1243 0.1243 0.0000 (   976 PWs)   bands (ev):

   -15.2351 -15.2175 -15.1789 -15.1255 -15.0463 -15.0412 -15.0325 -15.0305
   -15.0304 -15.0119  -2.7551   2.5340   7.1643   7.5024

          k = 0.2486 0.2486 0.0000 (   982 PWs)   bands (ev):

   -15.2327 -15.2224 -15.1502 -15.1074 -15.0688 -15.0616 -15.0304 -15.0291
   -15.0270 -15.0182  -2.0166   0.7810   7.9982   8.5911

          k =-0.3729-0.3729 0.0000 (   990 PWs)   bands (ev):

   -15.2282 -15.2282 -15.1098 -15.1098 -15.0837 -15.0837 -15.0293 -15.0293
   -15.0234 -15.0234  -0.8134  -0.8134   9.3624   9.3624

          k = 0.1243 0.0000 0.2619 (   986 PWs)   bands (ev):

   -15.1819 -15.1763 -15.1496 -15.1232 -15.0632 -15.0606 -15.0512 -15.0484
   -15.0424 -15.0117  -2.2938   3.5830   7.1413   8.2253

          k = 0.2486 0.1243 0.2619 (   982 PWs)   bands (ev):

   -15.1768 -15.1654 -15.1531 -15.1115 -15.0670 -15.0601 -15.0533 -15.0517
   -15.0470 -15.0208  -1.8013   2.2142   7.1806   9.5745

          k = 0.3729 0.2486 0.2619 (   981 PWs)   bands (ev):

   -15.1732 -15.1657 -15.1309 -15.0958 -15.0921 -15.0700 -15.0533 -15.0493
   -15.0433 -15.0320  -0.8330   0.5590   8.0964   9.6038

          k = 0.2486 0.0000 0.5238 (   979 PWs)   bands (ev):

   -15.1595 -15.1188 -15.1107 -15.1041 -15.0994 -15.0873 -15.0510 -15.0488
   -15.0245 -15.0165  -0.1731   4.3329   8.0789   8.7013

          k = 0.3729 0.1243 0.5238 (   981 PWs)   bands (ev):

   -15.1502 -15.1215 -15.1168 -15.0982 -15.0934 -15.0855 -15.0583 -15.0432
   -15.0347 -15.0188   0.5397   3.0937   7.8151   8.3741

          k = 0.4973 0.2486 0.5238 (   974 PWs)   bands (ev):

   -15.1456 -15.1262 -15.1115 -15.1029 -15.0862 -15.0707 -15.0684 -15.0595
   -15.0267 -15.0221   1.6320   1.7236   7.6828   9.0482

          k = 0.1243-0.1243 0.5238 (   983 PWs)   bands (ev):

   -15.1642 -15.1184 -15.1121 -15.1017 -15.0950 -15.0915 -15.0590 -15.0454
   -15.0207 -15.0134  -0.4146   4.7579   8.9151   9.4946

          k =-0.3729 0.0000-0.7856 (   974 PWs)   bands (ev):

   -15.1567 -15.1426 -15.1371 -15.1076 -15.1060 -15.0886 -15.0541 -15.0412
   -14.9832 -14.9593   2.6895   4.0150   6.6027   7.1725

          k =-0.2486 0.1243-0.7856 (   981 PWs)   bands (ev):

   -15.1623 -15.1415 -15.1281 -15.1126 -15.1047 -15.0878 -15.0545 -15.0442
   -14.9815 -14.9598   2.5871   4.4663   5.8112   7.2906

          k = 0.2486 0.2486 0.5238 (   976 PWs)   bands (ev):

   -15.1543 -15.1222 -15.1109 -15.1020 -15.0968 -15.0803 -15.0582 -15.0439
   -15.0289 -15.0223   0.3136   3.0529   8.7957   9.0982

          k = 0.3729 0.3729 0.5238 (   978 PWs)   bands (ev):

   -15.1378 -15.1378 -15.1119 -15.1119 -15.0763 -15.0763 -15.0550 -15.0550
   -15.0290 -15.0290   1.4954   1.4954   8.8042   8.8042

          k = 0.0000 0.0000 0.5238 (   981 PWs)   bands (ev):

   -15.1671 -15.1161 -15.1161 -15.1122 -15.0866 -15.0866 -15.0671 -15.0412
   -15.0210 -15.0076  -0.6599   5.7466   8.9382   8.9382

          k = 0.3729 0.2486 0.7856 (   980 PWs)   bands (ev):

   -15.1607 -15.1444 -15.1342 -15.1226 -15.0860 -15.0730 -15.0641 -15.0467
   -14.9786 -14.9661   3.1409   4.0561   5.4660   6.2013

          k =-0.0000-0.1243 0.7856 (   983 PWs)   bands (ev):

   -15.1568 -15.1416 -15.1290 -15.1122 -15.1070 -15.0957 -15.0502 -15.0482
   -14.9806 -14.9561   2.2052   5.1586   5.9919   8.3938

          k =-0.7459-0.2486-0.5238 (   974 PWs)   bands (ev):

   -15.1441 -15.1183 -15.1168 -15.0991 -15.0885 -15.0865 -15.0635 -15.0589
   -15.0269 -15.0173   1.1872   2.9218   6.9219   7.3875

          k =-0.6216-0.1243-0.5238 (   972 PWs)   bands (ev):

   -15.1439 -15.1198 -15.1031 -15.0978 -15.0915 -15.0849 -15.0783 -15.0595
   -15.0240 -15.0167   2.0273   2.2298   6.8817   7.2927

          k =-0.0000 0.3729-0.2619 (   974 PWs)   bands (ev):

   -15.1790 -15.1627 -15.1432 -15.1028 -15.0708 -15.0623 -15.0589 -15.0471
   -15.0468 -15.0318  -1.3248   1.8657   5.7730   9.1564

          k =-0.6216-0.2486-0.2619 (   975 PWs)   bands (ev):

   -15.1782 -15.1679 -15.1188 -15.0893 -15.0879 -15.0700 -15.0581 -15.0512
   -15.0446 -15.0391  -0.4094   0.8082   5.9301   7.2075

          k = 0.0000 0.2486 0.0000 (   986 PWs)   bands (ev):

   -15.2348 -15.2195 -15.1692 -15.1194 -15.0511 -15.0468 -15.0330 -15.0311
   -15.0289 -15.0159  -2.5097   2.1172   5.8859   9.3622

          k = 0.1243 0.3729 0.0000 (   984 PWs)   bands (ev):

   -15.2329 -15.2238 -15.1432 -15.1032 -15.0707 -15.0636 -15.0316 -15.0302
   -15.0272 -15.0214  -1.7835   0.8413   5.9070   8.7360

          k =-0.4973-0.2486 0.0000 (   990 PWs)   bands (ev):

   -15.2290 -15.2290 -15.1072 -15.1072 -15.0826 -15.0826 -15.0300 -15.0300
   -15.0253 -15.0253  -0.6190  -0.6190   6.9905   6.9905

          k =-0.0000-0.0000 1.0475 (   965 PWs)   bands (ev):

   -15.1385 -15.1143 -15.1143 -15.0906 -15.0888 -15.0875 -15.0875 -15.0574
   -15.0242 -15.0152   2.2871   2.5697   6.4778   6.4778

          k =-0.7459-0.1243-0.2619 (   967 PWs)   bands (ev):

   -15.1811 -15.1707 -15.1051 -15.0856 -15.0800 -15.0702 -15.0611 -15.0568
   -15.0485 -15.0455   0.3144   0.8925   4.8676   5.4611

          k =-0.0000 0.4973-0.0000 (   986 PWs)   bands (ev):

   -15.2327 -15.2273 -15.1249 -15.0928 -15.0809 -15.0699 -15.0329 -15.0310
   -15.0285 -15.0265  -1.1110   0.6960   4.6234   6.5211

          k =-0.6216-0.1243-0.0000 (   976 PWs)   bands (ev):

   -15.2307 -15.2307 -15.1015 -15.1015 -15.0804 -15.0804 -15.0313 -15.0313
   -15.0292 -15.0292  -0.1308  -0.1308   4.9928   4.9928

          k =-0.7459-0.7459-1.5713 (   976 PWs)   bands (ev):

   -15.2314 -15.2314 -15.0986 -15.0986 -15.0794 -15.0794 -15.0329 -15.0329
   -15.0309 -15.0309   0.2035   0.2035   4.1494   4.1494

     highest occupied level (ev):     9.6038

!    total energy              =    -631.01110769 Ry
     Harris-Foulkes estimate   =    -631.01110769 Ry
     estimated scf accuracy    <          2.1E-09 Ry

     total all-electron energy =     -8395.924369 Ry

     The total energy is the sum of the following terms:

     one-electron contribution =    -252.61867207 Ry
     hartree contribution      =     147.69577569 Ry
     xc contribution           =    -113.59393793 Ry
     ewald contribution        =    -214.94275117 Ry
     one-center paw contrib.   =    -197.55152221 Ry

     convergence has been achieved in   6 iterations


     Computing stress (Cartesian axis) and pressure

          total   stress  (Ry/bohr**3)                   (kbar)     P=    0.89
   0.00001454   0.00000000  -0.00000000          2.14      0.00     -0.00
   0.00000000   0.00001454  -0.00000000          0.00      2.14     -0.00
   0.00000000  -0.00000000  -0.00001083          0.00     -0.00     -1.59


     Writing output data file germanium.save/
 
     init_run     :      0.18s CPU      0.23s WALL (       1 calls)
     electrons    :      2.13s CPU      2.23s WALL (       1 calls)
     stress       :      0.03s CPU      0.03s WALL (       1 calls)

     Called by init_run:
     wfcinit      :      0.09s CPU      0.10s WALL (       1 calls)
     potinit      :      0.05s CPU      0.06s WALL (       1 calls)
     hinit0       :      0.03s CPU      0.06s WALL (       1 calls)

     Called by electrons:
     c_bands      :      1.77s CPU      1.83s WALL (       7 calls)
     sum_band     :      0.14s CPU      0.15s WALL (       7 calls)
     v_of_rho     :      0.02s CPU      0.01s WALL (       7 calls)
     newd         :      0.01s CPU      0.01s WALL (       7 calls)
     PAW_pot      :      0.24s CPU      0.29s WALL (       7 calls)
     mix_rho      :      0.00s CPU      0.00s WALL (       7 calls)

     Called by c_bands:
     init_us_2    :      0.00s CPU      0.01s WALL (     480 calls)
     cegterg      :      1.74s CPU      1.79s WALL (     210 calls)

     Called by sum_band:
     sum_band:bec :      0.00s CPU      0.00s WALL (     210 calls)
     addusdens    :      0.01s CPU      0.01s WALL (       7 calls)

     Called by *egterg:
     h_psi        :      0.68s CPU      0.71s WALL (     819 calls)
     s_psi        :      0.02s CPU      0.03s WALL (     819 calls)
     g_psi        :      0.01s CPU      0.00s WALL (     579 calls)
     cdiaghg      :      0.92s CPU      0.95s WALL (     759 calls)

     Called by h_psi:
     h_psi:pot    :      0.67s CPU      0.71s WALL (     819 calls)
     h_psi:calbec :      0.05s CPU      0.06s WALL (     819 calls)
     vloc_psi     :      0.59s CPU      0.62s WALL (     819 calls)
     add_vuspsi   :      0.03s CPU      0.03s WALL (     819 calls)

     General routines
     calbec       :      0.07s CPU      0.08s WALL (    1059 calls)
     fft          :      0.01s CPU      0.01s WALL (      93 calls)
     ffts         :      0.00s CPU      0.00s WALL (       7 calls)
     fftw         :      0.70s CPU      0.69s WALL (   20254 calls)
 
     Parallel routines
     fft_scatt_xy :      0.05s CPU      0.05s WALL (   20354 calls)
     fft_scatt_yz :      0.42s CPU      0.44s WALL (   20354 calls)
 
     PWSCF        :     3.33s CPU         3.57s WALL

 
   This run was terminated on:  10:50:27  12May2022            

=------------------------------------------------------------------------------=
   JOB DONE.
=------------------------------------------------------------------------------=
