
     Program PHONON v.6.3MaX starts on 12May2022 at 11:42:35 

     This program is part of the open-source Quantum ESPRESSO suite
     for quantum simulation of materials; please cite
         "P. Giannozzi et al., J. Phys.:Condens. Matter 21 395502 (2009);
         "P. Giannozzi et al., J. Phys.:Condens. Matter 29 465901 (2017);
          URL http://www.quantum-espresso.org", 
     in publications or presentations arising from this work. More details at
     http://www.quantum-espresso.org/quote

     Parallel version (MPI), running on    12 processors

     MPI processes distributed on     1 nodes
     R & G space division:  proc/nbgrp/npool/nimage =      12

     Reading data from directory:
     calc/germanium.save/

     IMPORTANT: XC functional enforced from input :
     Exchange-correlation      = PBE ( 1  4  3  4 0 0)
     Any further DFT definition will be discarded
     Please, verify this is what you really want

               file Ge.pbe-dn-kjpaw_psl.0.2.2.UPF: wavefunction(s)  4P 3D renormalized
 
     Parallelization info
     --------------------
     sticks:   dense  smooth     PW     G-vecs:    dense   smooth      PW
     Min          34      34     13                  650      650     160
     Max          35      35     14                  654      654     163
     Sum         413     413    165                 7821     7821    1933
 

     Check: negative/imaginary core charge=   -0.000166    0.000000


     Dynamical matrices for ( 6, 6, 6)  uniform grid of q-points
     (  30 q-points):
       N         xq(1)         xq(2)         xq(3) 
       1   0.000000000   0.000000000   0.000000000
       2   0.124312941   0.124312941   0.000000000
       3   0.248625883   0.248625883   0.000000000
       4  -0.372938824  -0.372938824   0.000000000
       5   0.124312941   0.000000000   0.261880471
       6   0.248625883   0.124312941   0.261880471
       7   0.372938824   0.248625883   0.261880471
       8   0.248625883   0.000000000   0.523760942
       9   0.372938824   0.124312941   0.523760942
      10   0.497251765   0.248625883   0.523760942
      11   0.124312941  -0.124312941   0.523760942
      12  -0.372938824   0.000000000  -0.785641413
      13  -0.248625883   0.124312941  -0.785641413
      14   0.248625883   0.248625883   0.523760942
      15   0.372938824   0.372938824   0.523760942
      16   0.000000000   0.000000000   0.523760942
      17   0.372938824   0.248625883   0.785641413
      18  -0.000000000  -0.124312941   0.785641413
      19  -0.745877648  -0.248625883  -0.523760942
      20  -0.621564706  -0.124312941  -0.523760942
      21  -0.000000000   0.372938824  -0.261880471
      22  -0.621564706  -0.248625883  -0.261880471
      23   0.000000000   0.248625883   0.000000000
      24   0.124312941   0.372938824   0.000000000
      25  -0.497251765  -0.248625883   0.000000000
      26  -0.000000000  -0.000000000   1.047521884
      27  -0.745877648  -0.124312941  -0.261880471
      28  -0.000000000   0.497251765  -0.000000000
      29  -0.621564706  -0.124312941  -0.000000000
      30  -0.745877648  -0.745877648  -1.571282826

     Calculation of q =    0.0000000   0.0000000   0.0000000

     BETA-TIN PHONONS                                                           

     bravais-lattice index     =            0
     lattice parameter (alat)  =       7.8793  a.u.
     unit-cell volume          =     279.7989 (a.u.)^3
     number of atoms/cell      =            2
     number of atomic types    =            1
     kinetic-energy cut-off    =      35.0000  Ry
     charge density cut-off    =     140.0000  Ry
     convergence threshold     =      5.0E-14
     beta                      =       0.7000
     number of iterations used =            4
     Exchange-correlation      = PBE ( 1  4  3  4 0 0)


     celldm(1)=   10.56382  celldm(2)=    1.00000  celldm(3)=    0.47469
     celldm(4)=    0.00000  celldm(5)=    0.00000  celldm(6)=    0.00000

     crystal axes: (cart. coord. in units of alat)
               a(1) = ( -0.6704  0.6704  0.3182 )  
               a(2) = (  0.6704 -0.6704  0.3182 )  
               a(3) = (  0.6704  0.6704 -0.3182 )  

     reciprocal axes: (cart. coord. in units 2 pi/alat)
               b(1) = (  0.0000  0.7459  1.5713 )  
               b(2) = (  0.7459  0.0000  1.5713 )  
               b(3) = (  0.7459  0.7459  0.0000 )  


     Atoms inside the unit cell: 

     Cartesian axes

     site n.  atom      mass           positions (alat units)
        1     Ge  72.6400   tau(    1) = (   -0.00000    1.00553    0.07955  )
        2     Ge  72.6400   tau(    2) = (    0.67035   -0.33518    0.23866  )

     Computing dynamical matrix for 
                    q = (   0.0000000   0.0000000   0.0000000 )
 
     17 Sym.Ops. (with q -> -q+G )


     G cutoff =  220.1635  (    651 G-vectors)     FFT grid: ( 30, 30, 30)
     number of k points=    30

     PseudoPot. # 1 for Ge read from file:
     ../PP/Ge.pbe-dn-kjpaw_psl.0.2.2.UPF
     MD5 check sum: acf6dd3aa1b4e03129ff8bf786ac0282
     Pseudo is Projector augmented-wave + core cor, Zval = 14.0
     Generated using "atomic" code by A. Dal Corso v.5.0.2 svn rev. 9415
     Shape of augmentation charge: PSQ
     Using radial grid of 1207 points,  6 beta functions with: 
                l(1) =   0
                l(2) =   0
                l(3) =   1
                l(4) =   1
                l(5) =   2
                l(6) =   2
     Q(r) pseudized with 0 coefficients 


     Mode symmetry, D_4h(4/mmm) point group:


     Electric field:
     Dielectric constant
     Born effective charges in two ways 


     Atomic displacements:
     There are   4 irreducible representations

     Representation     1      1 modes -B_1g X_2  M_2  To be done

     Representation     2      2 modes -E_g  X_5  M_5  To be done

     Representation     3      1 modes -A_2u X_4' M_4'  To be done

     Representation     4      2 modes -E_u  X_5' M_5'  To be done



     Alpha used in Ewald sum =   1.3000
     PHONON       :     1.38s CPU         1.44s WALL


     Electric Fields Calculation

      iter #   1 total cpu time :     6.6 secs   av.it.:   5.5
      thresh= 1.000E-02 alpha_mix =  0.700 |ddv_scf|^2 =  3.137E-06

      iter #   2 total cpu time :     8.5 secs   av.it.:  10.5
      thresh= 1.771E-04 alpha_mix =  0.700 |ddv_scf|^2 =  1.031E-07

      iter #   3 total cpu time :    10.5 secs   av.it.:  10.2
      thresh= 3.212E-05 alpha_mix =  0.700 |ddv_scf|^2 =  8.739E-09

      iter #   4 total cpu time :    12.3 secs   av.it.:  10.3
      thresh= 9.348E-06 alpha_mix =  0.700 |ddv_scf|^2 =  5.764E-11

      iter #   5 total cpu time :    14.2 secs   av.it.:  10.2
      thresh= 7.592E-07 alpha_mix =  0.700 |ddv_scf|^2 =  3.268E-12

      iter #   6 total cpu time :    16.1 secs   av.it.:  10.2
      thresh= 1.808E-07 alpha_mix =  0.700 |ddv_scf|^2 =  2.562E-14

     End of electric fields calculation

          Dielectric constant in cartesian axis 

          (     551.453374690       0.000000000      -0.000000000 )
          (       0.000000000     551.453374690      -0.000000000 )
          (      -0.000000000      -0.000000000    3388.051588731 )

          Effective charges (d Force / dE) in cartesian axis

           atom      1   Ge 
      Ex  (        0.57357        0.00000        0.00000 )
      Ey  (        0.00000        0.57357        0.00000 )
      Ez  (        0.00000        0.00000       -1.46445 )
           atom      2   Ge 
      Ex  (        0.57357        0.00000        0.00000 )
      Ey  (        0.00000        0.57357       -0.00000 )
      Ez  (       -0.00000       -0.00000       -1.46445 )


     Representation #  1 mode #   1

     Self-consistent Calculation

      iter #   1 total cpu time :    17.9 secs   av.it.:   6.1
      thresh= 1.000E-02 alpha_mix =  0.700 |ddv_scf|^2 =  3.231E-05

      iter #   2 total cpu time :    18.4 secs   av.it.:   8.3
      thresh= 5.684E-04 alpha_mix =  0.700 |ddv_scf|^2 =  2.642E-07

      iter #   3 total cpu time :    19.0 secs   av.it.:   8.7
      thresh= 5.140E-05 alpha_mix =  0.700 |ddv_scf|^2 =  1.921E-08

      iter #   4 total cpu time :    19.5 secs   av.it.:   8.7
      thresh= 1.386E-05 alpha_mix =  0.700 |ddv_scf|^2 =  1.238E-10

      iter #   5 total cpu time :    20.1 secs   av.it.:   8.3
      thresh= 1.112E-06 alpha_mix =  0.700 |ddv_scf|^2 =  6.341E-12

      iter #   6 total cpu time :    20.6 secs   av.it.:   8.6
      thresh= 2.518E-07 alpha_mix =  0.700 |ddv_scf|^2 =  2.266E-14

     End of self-consistent calculation

     Convergence has been achieved 


     Representation #  2 modes #   2  3

     Self-consistent Calculation

      iter #   1 total cpu time :    21.8 secs   av.it.:   7.2
      thresh= 1.000E-02 alpha_mix =  0.700 |ddv_scf|^2 =  5.109E-05

      iter #   2 total cpu time :    23.0 secs   av.it.:   9.6
      thresh= 7.147E-04 alpha_mix =  0.700 |ddv_scf|^2 =  1.996E-05

      iter #   3 total cpu time :    24.2 secs   av.it.:   9.2
      thresh= 4.467E-04 alpha_mix =  0.700 |ddv_scf|^2 =  4.612E-08

      iter #   4 total cpu time :    25.5 secs   av.it.:   9.7
      thresh= 2.147E-05 alpha_mix =  0.700 |ddv_scf|^2 =  5.002E-10

      iter #   5 total cpu time :    26.6 secs   av.it.:   9.2
      thresh= 2.237E-06 alpha_mix =  0.700 |ddv_scf|^2 =  4.558E-12

      iter #   6 total cpu time :    27.8 secs   av.it.:   9.4
      thresh= 2.135E-07 alpha_mix =  0.700 |ddv_scf|^2 =  1.018E-13

      iter #   7 total cpu time :    29.0 secs   av.it.:   9.4
      thresh= 3.191E-08 alpha_mix =  0.700 |ddv_scf|^2 =  4.789E-16

     End of self-consistent calculation

     Convergence has been achieved 


     Representation #  3 mode #   4

     Self-consistent Calculation

      iter #   1 total cpu time :    29.8 secs   av.it.:   6.2
      thresh= 1.000E-02 alpha_mix =  0.700 |ddv_scf|^2 =  3.353E-05

      iter #   2 total cpu time :    30.4 secs   av.it.:   8.3
      thresh= 5.791E-04 alpha_mix =  0.700 |ddv_scf|^2 =  2.743E-07

      iter #   3 total cpu time :    31.0 secs   av.it.:   8.5
      thresh= 5.237E-05 alpha_mix =  0.700 |ddv_scf|^2 =  2.172E-08

      iter #   4 total cpu time :    31.5 secs   av.it.:   8.8
      thresh= 1.474E-05 alpha_mix =  0.700 |ddv_scf|^2 =  1.267E-10

      iter #   5 total cpu time :    32.1 secs   av.it.:   8.8
      thresh= 1.126E-06 alpha_mix =  0.700 |ddv_scf|^2 =  3.522E-13

      iter #   6 total cpu time :    32.7 secs   av.it.:   8.8
      thresh= 5.935E-08 alpha_mix =  0.700 |ddv_scf|^2 =  4.241E-15

     End of self-consistent calculation

     Convergence has been achieved 


     Representation #  4 modes #   5  6

     Self-consistent Calculation

      iter #   1 total cpu time :    33.9 secs   av.it.:   6.7
      thresh= 1.000E-02 alpha_mix =  0.700 |ddv_scf|^2 =  1.192E-05

      iter #   2 total cpu time :    35.0 secs   av.it.:   9.7
      thresh= 3.452E-04 alpha_mix =  0.700 |ddv_scf|^2 =  2.817E-07

      iter #   3 total cpu time :    36.9 secs   av.it.:   9.8
      thresh= 5.308E-05 alpha_mix =  0.700 |ddv_scf|^2 =  1.079E-08

      iter #   4 total cpu time :    38.4 secs   av.it.:  10.0
      thresh= 1.039E-05 alpha_mix =  0.700 |ddv_scf|^2 =  9.318E-11

      iter #   5 total cpu time :    39.5 secs   av.it.:   9.6
      thresh= 9.653E-07 alpha_mix =  0.700 |ddv_scf|^2 =  2.559E-13

      iter #   6 total cpu time :    41.0 secs   av.it.:   9.9
      thresh= 5.058E-08 alpha_mix =  0.700 |ddv_scf|^2 =  6.806E-15

     End of self-consistent calculation

     Convergence has been achieved 
 
     Number of q in the star =    1
     List of q in the star:
          1   0.000000000   0.000000000   0.000000000

          Dielectric constant in cartesian axis 

          (     551.453374690       0.000000000      -0.000000000 )
          (       0.000000000     551.453374690      -0.000000000 )
          (      -0.000000000      -0.000000000    3388.051588731 )

          Effective charges (d Force / dE) in cartesian axis

           atom      1   Ge 
      Ex  (        0.57357        0.00000        0.00000 )
      Ey  (        0.00000        0.57357        0.00000 )
      Ez  (        0.00000        0.00000       -1.46445 )
           atom      2   Ge 
      Ex  (        0.57357        0.00000        0.00000 )
      Ey  (        0.00000        0.57357       -0.00000 )
      Ez  (       -0.00000       -0.00000       -1.46445 )

          Effective charges (d P / du) in cartesian axis 

           atom      1   Ge 
      Px  (        0.57398       -0.00000        0.00000 )
      Py  (       -0.00000        0.57398       -0.00000 )
      Pz  (        0.00000       -0.00000       -1.46402 )
           atom      2   Ge 
      Px  (        0.57398        0.00000        0.00000 )
      Py  (       -0.00000        0.57398       -0.00000 )
      Pz  (       -0.00000       -0.00000       -1.46402 )

     Diagonalizing the dynamical matrix

     q = (    0.000000000   0.000000000   0.000000000 ) 

 **************************************************************************
     freq (    1) =      -2.486345 [THz] =     -82.935545 [cm-1]
     freq (    2) =      -2.486345 [THz] =     -82.935545 [cm-1]
     freq (    3) =      -1.359730 [THz] =     -45.355722 [cm-1]
     freq (    4) =      -1.359730 [THz] =     -45.355722 [cm-1]
     freq (    5) =       0.753944 [THz] =      25.148857 [cm-1]
     freq (    6) =       1.363775 [THz] =      45.490628 [cm-1]
 **************************************************************************

     Mode symmetry, D_4h(4/mmm) point group:

     freq (  1 -  2) =        -82.9  [cm-1]   --> E_g  X_5  M_5   R  
     freq (  3 -  4) =        -45.4  [cm-1]   --> E_u  X_5' M_5'  I  
     freq (  5 -  5) =         25.1  [cm-1]   --> A_2u X_4' M_4'  I  
     freq (  6 -  6) =         45.5  [cm-1]   --> B_1g X_2  M_2   R  

     Calculation of q =    0.1243129   0.1243129   0.0000000

     Subspace diagonalization in iterative solution of the eigenvalue problem:
     one sub-group per k-point group (pool) will be used
     scalapack distributed-memory algorithm (size of sub-group:  2*  2 procs)

 
     Parallelization info
     --------------------
     sticks:   dense  smooth     PW     G-vecs:    dense   smooth      PW
     Min          34      34     13                  650      650     160
     Max          35      35     14                  654      654     163
     Sum         413     413    165                 7821     7821    1933
 

     Title: 
     BETA-TIN PHONONS                                                           


     bravais-lattice index     =            0
     lattice parameter (alat)  =       7.8793  a.u.
     unit-cell volume          =     279.7989 (a.u.)^3
     number of atoms/cell      =            2
     number of atomic types    =            1
     number of electrons       =        28.00
     number of Kohn-Sham states=           14
     kinetic-energy cutoff     =      35.0000  Ry
     charge density cutoff     =     140.0000  Ry
     Exchange-correlation      = PBE ( 1  4  3  4 0 0)

     celldm(1)=  10.563818  celldm(2)=   1.000000  celldm(3)=   0.474693
     celldm(4)=   0.000000  celldm(5)=   0.000000  celldm(6)=   0.000000

     crystal axes: (cart. coord. in units of alat)
               a(1) = (  -0.670351   0.670351   0.318211 )  
               a(2) = (   0.670351  -0.670351   0.318211 )  
               a(3) = (   0.670351   0.670351  -0.318211 )  

     reciprocal axes: (cart. coord. in units 2 pi/alat)
               b(1) = (  0.000000  0.745878  1.571283 )  
               b(2) = (  0.745878  0.000000  1.571283 )  
               b(3) = (  0.745878  0.745878  0.000000 )  


     PseudoPot. # 1 for Ge read from file:
     ../PP/Ge.pbe-dn-kjpaw_psl.0.2.2.UPF
     MD5 check sum: acf6dd3aa1b4e03129ff8bf786ac0282
     Pseudo is Projector augmented-wave + core cor, Zval = 14.0
     Generated using "atomic" code by A. Dal Corso v.5.0.2 svn rev. 9415
     Shape of augmentation charge: PSQ
     Using radial grid of 1207 points,  6 beta functions with: 
                l(1) =   0
                l(2) =   0
                l(3) =   1
                l(4) =   1
                l(5) =   2
                l(6) =   2
     Q(r) pseudized with 0 coefficients 


     atomic species   valence    mass     pseudopotential
        Ge            14.00    72.64000     Ge( 1.00)

     16 Sym. Ops., with inversion, found



   Cartesian axes

     site n.     atom                  positions (alat units)
         1           Ge  tau(   1) = (  -0.0000000   1.0055268   0.0795528  )
         2           Ge  tau(   2) = (   0.6703512  -0.3351756   0.2386585  )

     number of k points=   150

     Number of k-points >= 100: set verbosity='high' to print them.

     Dense  grid:     7821 G-vectors     FFT dimensions: (  30,  30,  30)

     Estimated max dynamical RAM per process >       3.40 MB

     Estimated total dynamical RAM >      40.84 MB

     Check: negative/imaginary core charge=   -0.000166    0.000000

     The potential is recalculated from file :
     calc/_ph0/germanium.save/charge-density.dat

     Starting wfcs are   18 atomic wfcs
     Checking if some PAW data can be deallocated... 

     Band Structure Calculation
     Davidson diagonalization with overlap

     ethr =  3.57E-11,  avg # of iterations = 12.4

     total cpu time spent up to now is        5.2 secs

     End of band structure calculation

     Number of k-points >= 100: set verbosity='high' to print the bands.

     highest occupied level (ev):     9.6039

     Writing output data file germanium.save/

     BETA-TIN PHONONS                                                           

     bravais-lattice index     =            0
     lattice parameter (alat)  =       7.8793  a.u.
     unit-cell volume          =     279.7989 (a.u.)^3
     number of atoms/cell      =            2
     number of atomic types    =            1
     kinetic-energy cut-off    =      35.0000  Ry
     charge density cut-off    =     140.0000  Ry
     convergence threshold     =      5.0E-14
     beta                      =       0.7000
     number of iterations used =            4
     Exchange-correlation      = PBE ( 1  4  3  4 0 0)


     celldm(1)=   10.56382  celldm(2)=    1.00000  celldm(3)=    0.47469
     celldm(4)=    0.00000  celldm(5)=    0.00000  celldm(6)=    0.00000

     crystal axes: (cart. coord. in units of alat)
               a(1) = ( -0.6704  0.6704  0.3182 )  
               a(2) = (  0.6704 -0.6704  0.3182 )  
               a(3) = (  0.6704  0.6704 -0.3182 )  

     reciprocal axes: (cart. coord. in units 2 pi/alat)
               b(1) = (  0.0000  0.7459  1.5713 )  
               b(2) = (  0.7459  0.0000  1.5713 )  
               b(3) = (  0.7459  0.7459  0.0000 )  


     Atoms inside the unit cell: 

     Cartesian axes

     site n.  atom      mass           positions (alat units)
        1     Ge  72.6400   tau(    1) = (   -0.00000    1.00553    0.07955  )
        2     Ge  72.6400   tau(    2) = (    0.67035   -0.33518    0.23866  )

     Computing dynamical matrix for 
                    q = (   0.1243129   0.1243129   0.0000000 )
 
      4 Sym.Ops. (no q -> -q+G )


     G cutoff =  220.1635  (    651 G-vectors)     FFT grid: ( 30, 30, 30)
     number of k points=   150

     PseudoPot. # 1 for Ge read from file:
     ../PP/Ge.pbe-dn-kjpaw_psl.0.2.2.UPF
     MD5 check sum: acf6dd3aa1b4e03129ff8bf786ac0282
     Pseudo is Projector augmented-wave + core cor, Zval = 14.0
     Generated using "atomic" code by A. Dal Corso v.5.0.2 svn rev. 9415
     Shape of augmentation charge: PSQ
     Using radial grid of 1207 points,  6 beta functions with: 
                l(1) =   0
                l(2) =   0
                l(3) =   1
                l(4) =   1
                l(5) =   2
                l(6) =   2
     Q(r) pseudized with 0 coefficients 


     Mode symmetry, C_2v (mm2)  point group:


     Atomic displacements:
     There are   6 irreducible representations

     Representation     1      1 modes -A_1  D_1  S_1  To be done

     Representation     2      1 modes -A_2  D_2  S_2  To be done

     Representation     3      1 modes -B_1  D_3  S_3  To be done

     Representation     4      1 modes -B_1  D_3  S_3  To be done

     Representation     5      1 modes -B_2  D_4  S_4  To be done

     Representation     6      1 modes -B_2  D_4  S_4  To be done



     Alpha used in Ewald sum =   1.3000
     PHONON       :    45.42s CPU        47.34s WALL



     Representation #  1 mode #   1

     Self-consistent Calculation

      iter #   1 total cpu time :    48.5 secs   av.it.:   7.7
      thresh= 1.000E-02 alpha_mix =  0.700 |ddv_scf|^2 =  5.444E+00

      iter #   2 total cpu time :    49.9 secs   av.it.:  10.7
      thresh= 1.000E-02 alpha_mix =  0.700 |ddv_scf|^2 =  1.397E+04

      iter #   3 total cpu time :    51.9 secs   av.it.:  10.6
      thresh= 1.000E-02 alpha_mix =  0.700 |ddv_scf|^2 =  3.629E-01

      iter #   4 total cpu time :    53.1 secs   av.it.:   5.1
      thresh= 1.000E-02 alpha_mix =  0.700 |ddv_scf|^2 =  2.138E-04

      iter #   5 total cpu time :    54.5 secs   av.it.:   6.1
      thresh= 1.462E-03 alpha_mix =  0.700 |ddv_scf|^2 =  1.004E-05

      iter #   6 total cpu time :    55.8 secs   av.it.:   6.5
      thresh= 3.168E-04 alpha_mix =  0.700 |ddv_scf|^2 =  3.961E-07

      iter #   7 total cpu time :    56.8 secs   av.it.:   6.9
      thresh= 6.294E-05 alpha_mix =  0.700 |ddv_scf|^2 =  5.539E-10

      iter #   8 total cpu time :    58.0 secs   av.it.:   8.4
      thresh= 2.354E-06 alpha_mix =  0.700 |ddv_scf|^2 =  2.297E-09

      iter #   9 total cpu time :    58.7 secs   av.it.:   3.9
      thresh= 4.792E-06 alpha_mix =  0.700 |ddv_scf|^2 =  1.198E-10

      iter #  10 total cpu time :    59.8 secs   av.it.:   7.1
      thresh= 1.094E-06 alpha_mix =  0.700 |ddv_scf|^2 =  4.732E-11

      iter #  11 total cpu time :    60.8 secs   av.it.:   6.5
      thresh= 6.879E-07 alpha_mix =  0.700 |ddv_scf|^2 =  2.464E-13

      iter #  12 total cpu time :    61.7 secs   av.it.:   6.1
      thresh= 4.964E-08 alpha_mix =  0.700 |ddv_scf|^2 =  1.660E-14

     End of self-consistent calculation

     Convergence has been achieved 


     Representation #  2 mode #   2

     Self-consistent Calculation

      iter #   1 total cpu time :    62.9 secs   av.it.:   7.4
      thresh= 1.000E-02 alpha_mix =  0.700 |ddv_scf|^2 =  3.132E-04

      iter #   2 total cpu time :    64.1 secs   av.it.:   9.0
      thresh= 1.770E-03 alpha_mix =  0.700 |ddv_scf|^2 =  3.540E-04

      iter #   3 total cpu time :    65.5 secs   av.it.:   8.5
      thresh= 1.881E-03 alpha_mix =  0.700 |ddv_scf|^2 =  1.092E-05

      iter #   4 total cpu time :    66.7 secs   av.it.:   9.0
      thresh= 3.304E-04 alpha_mix =  0.700 |ddv_scf|^2 =  2.691E-07

      iter #   5 total cpu time :    68.0 secs   av.it.:   9.4
      thresh= 5.188E-05 alpha_mix =  0.700 |ddv_scf|^2 =  3.796E-09

      iter #   6 total cpu time :    69.3 secs   av.it.:  10.0
      thresh= 6.161E-06 alpha_mix =  0.700 |ddv_scf|^2 =  1.744E-10

      iter #   7 total cpu time :    70.7 secs   av.it.:   9.6
      thresh= 1.321E-06 alpha_mix =  0.700 |ddv_scf|^2 =  1.117E-11

      iter #   8 total cpu time :    72.0 secs   av.it.:   9.7
      thresh= 3.342E-07 alpha_mix =  0.700 |ddv_scf|^2 =  7.911E-13

      iter #   9 total cpu time :    73.3 secs   av.it.:   9.7
      thresh= 8.894E-08 alpha_mix =  0.700 |ddv_scf|^2 =  2.735E-14

     End of self-consistent calculation

     Convergence has been achieved 


     Representation #  3 mode #   3

     Self-consistent Calculation

      iter #   1 total cpu time :    74.4 secs   av.it.:   6.8
      thresh= 1.000E-02 alpha_mix =  0.700 |ddv_scf|^2 =  3.577E-05

      iter #   2 total cpu time :    75.7 secs   av.it.:   9.1
      thresh= 5.981E-04 alpha_mix =  0.700 |ddv_scf|^2 =  5.867E-07

      iter #   3 total cpu time :    77.0 secs   av.it.:   9.5
      thresh= 7.659E-05 alpha_mix =  0.700 |ddv_scf|^2 =  3.013E-08

      iter #   4 total cpu time :    78.3 secs   av.it.:   9.5
      thresh= 1.736E-05 alpha_mix =  0.700 |ddv_scf|^2 =  1.399E-09

      iter #   5 total cpu time :    79.6 secs   av.it.:   9.4
      thresh= 3.741E-06 alpha_mix =  0.700 |ddv_scf|^2 =  2.077E-11

      iter #   6 total cpu time :    80.8 secs   av.it.:   9.4
      thresh= 4.558E-07 alpha_mix =  0.700 |ddv_scf|^2 =  8.519E-14

      iter #   7 total cpu time :    82.1 secs   av.it.:   9.1
      thresh= 2.919E-08 alpha_mix =  0.700 |ddv_scf|^2 =  2.434E-15

     End of self-consistent calculation

     Convergence has been achieved 


     Representation #  4 mode #   4

     Self-consistent Calculation

      iter #   1 total cpu time :    83.2 secs   av.it.:   7.1
      thresh= 1.000E-02 alpha_mix =  0.700 |ddv_scf|^2 =  4.845E-05

      iter #   2 total cpu time :    84.5 secs   av.it.:   9.3
      thresh= 6.961E-04 alpha_mix =  0.700 |ddv_scf|^2 =  1.640E-06

      iter #   3 total cpu time :    85.9 secs   av.it.:   9.4
      thresh= 1.281E-04 alpha_mix =  0.700 |ddv_scf|^2 =  4.455E-08

      iter #   4 total cpu time :    87.2 secs   av.it.:   9.5
      thresh= 2.111E-05 alpha_mix =  0.700 |ddv_scf|^2 =  1.062E-09

      iter #   5 total cpu time :    88.5 secs   av.it.:   9.4
      thresh= 3.258E-06 alpha_mix =  0.700 |ddv_scf|^2 =  2.823E-11

      iter #   6 total cpu time :    89.7 secs   av.it.:   9.3
      thresh= 5.313E-07 alpha_mix =  0.700 |ddv_scf|^2 =  1.589E-13

      iter #   7 total cpu time :    91.2 secs   av.it.:   8.9
      thresh= 3.987E-08 alpha_mix =  0.700 |ddv_scf|^2 =  4.407E-15

     End of self-consistent calculation

     Convergence has been achieved 


     Representation #  5 mode #   5

     Self-consistent Calculation

      iter #   1 total cpu time :    92.4 secs   av.it.:   7.4
      thresh= 1.000E-02 alpha_mix =  0.700 |ddv_scf|^2 =  1.814E-04

      iter #   2 total cpu time :    93.6 secs   av.it.:   9.2
      thresh= 1.347E-03 alpha_mix =  0.700 |ddv_scf|^2 =  8.418E-05

      iter #   3 total cpu time :    94.9 secs   av.it.:   8.6
      thresh= 9.175E-04 alpha_mix =  0.700 |ddv_scf|^2 =  1.643E-07

      iter #   4 total cpu time :    96.7 secs   av.it.:   9.5
      thresh= 4.053E-05 alpha_mix =  0.700 |ddv_scf|^2 =  5.309E-09

      iter #   5 total cpu time :    98.6 secs   av.it.:   9.4
      thresh= 7.286E-06 alpha_mix =  0.700 |ddv_scf|^2 =  1.556E-10

      iter #   6 total cpu time :   100.5 secs   av.it.:   9.2
      thresh= 1.247E-06 alpha_mix =  0.700 |ddv_scf|^2 =  5.990E-13

      iter #   7 total cpu time :   101.8 secs   av.it.:   8.7
      thresh= 7.740E-08 alpha_mix =  0.700 |ddv_scf|^2 =  4.599E-14

     End of self-consistent calculation

     Convergence has been achieved 


     Representation #  6 mode #   6

     Self-consistent Calculation

      iter #   1 total cpu time :   102.9 secs   av.it.:   7.0
      thresh= 1.000E-02 alpha_mix =  0.700 |ddv_scf|^2 =  6.519E-05

      iter #   2 total cpu time :   104.3 secs   av.it.:   9.2
      thresh= 8.074E-04 alpha_mix =  0.700 |ddv_scf|^2 =  1.655E-05

      iter #   3 total cpu time :   105.6 secs   av.it.:   8.8
      thresh= 4.068E-04 alpha_mix =  0.700 |ddv_scf|^2 =  3.725E-07

      iter #   4 total cpu time :   106.8 secs   av.it.:   9.3
      thresh= 6.103E-05 alpha_mix =  0.700 |ddv_scf|^2 =  9.841E-09

      iter #   5 total cpu time :   108.1 secs   av.it.:   9.5
      thresh= 9.920E-06 alpha_mix =  0.700 |ddv_scf|^2 =  7.362E-11

      iter #   6 total cpu time :   109.3 secs   av.it.:   9.4
      thresh= 8.580E-07 alpha_mix =  0.700 |ddv_scf|^2 =  3.534E-13

      iter #   7 total cpu time :   110.7 secs   av.it.:   8.8
      thresh= 5.944E-08 alpha_mix =  0.700 |ddv_scf|^2 =  2.504E-14

     End of self-consistent calculation

     Convergence has been achieved 
 
     Number of q in the star =    4
     List of q in the star:
          1   0.124312941   0.124312941   0.000000000
          2  -0.124312941  -0.124312941   0.000000000
          3  -0.124312941   0.124312941   0.000000000
          4   0.124312941  -0.124312941   0.000000000

     Diagonalizing the dynamical matrix

     q = (    0.124312941   0.124312941   0.000000000 ) 

 **************************************************************************
     freq (    1) =      -3.005161 [THz] =    -100.241367 [cm-1]
     freq (    2) =      -1.399091 [THz] =     -46.668665 [cm-1]
     freq (    3) =      -1.067138 [THz] =     -35.595892 [cm-1]
     freq (    4) =       1.235103 [THz] =      41.198609 [cm-1]
     freq (    5) =       1.711186 [THz] =      57.079020 [cm-1]
     freq (    6) =       2.901228 [THz] =      96.774553 [cm-1]
 **************************************************************************

     Mode symmetry, C_2v (mm2)  point group:

     freq (  1 -  1) =       -100.2  [cm-1]   --> B_2  D_4  S_4      
     freq (  2 -  2) =        -46.7  [cm-1]   --> A_1  D_1  S_1      
     freq (  3 -  3) =        -35.6  [cm-1]   --> B_1  D_3  S_3      
     freq (  4 -  4) =         41.2  [cm-1]   --> B_2  D_4  S_4      
     freq (  5 -  5) =         57.1  [cm-1]   --> B_1  D_3  S_3      
     freq (  6 -  6) =         96.8  [cm-1]   --> A_2  D_2  S_2      

     Calculation of q =    0.2486259   0.2486259   0.0000000
 
     Parallelization info
     --------------------
     sticks:   dense  smooth     PW     G-vecs:    dense   smooth      PW
     Min          34      34     13                  650      650     160
     Max          35      35     14                  654      654     163
     Sum         413     413    165                 7821     7821    1933
 

     Title: 
     BETA-TIN PHONONS                                                           


     bravais-lattice index     =            0
     lattice parameter (alat)  =       7.8793  a.u.
     unit-cell volume          =     279.7989 (a.u.)^3
     number of atoms/cell      =            2
     number of atomic types    =            1
     number of electrons       =        28.00
     number of Kohn-Sham states=           14
     kinetic-energy cutoff     =      35.0000  Ry
     charge density cutoff     =     140.0000  Ry
     Exchange-correlation      = PBE ( 1  4  3  4 0 0)

     celldm(1)=  10.563818  celldm(2)=   1.000000  celldm(3)=   0.474693
     celldm(4)=   0.000000  celldm(5)=   0.000000  celldm(6)=   0.000000

     crystal axes: (cart. coord. in units of alat)
               a(1) = (  -0.670351   0.670351   0.318211 )  
               a(2) = (   0.670351  -0.670351   0.318211 )  
               a(3) = (   0.670351   0.670351  -0.318211 )  

     reciprocal axes: (cart. coord. in units 2 pi/alat)
               b(1) = (  0.000000  0.745878  1.571283 )  
               b(2) = (  0.745878  0.000000  1.571283 )  
               b(3) = (  0.745878  0.745878  0.000000 )  


     PseudoPot. # 1 for Ge read from file:
     ../PP/Ge.pbe-dn-kjpaw_psl.0.2.2.UPF
     MD5 check sum: acf6dd3aa1b4e03129ff8bf786ac0282
     Pseudo is Projector augmented-wave + core cor, Zval = 14.0
     Generated using "atomic" code by A. Dal Corso v.5.0.2 svn rev. 9415
     Shape of augmentation charge: PSQ
     Using radial grid of 1207 points,  6 beta functions with: 
                l(1) =   0
                l(2) =   0
                l(3) =   1
                l(4) =   1
                l(5) =   2
                l(6) =   2
     Q(r) pseudized with 0 coefficients 


     atomic species   valence    mass     pseudopotential
        Ge            14.00    72.64000     Ge( 1.00)

     16 Sym. Ops., with inversion, found



   Cartesian axes

     site n.     atom                  positions (alat units)
         1           Ge  tau(   1) = (  -0.0000000   1.0055268   0.0795528  )
         2           Ge  tau(   2) = (   0.6703512  -0.3351756   0.2386585  )

     number of k points=   150

     Number of k-points >= 100: set verbosity='high' to print them.

     Dense  grid:     7821 G-vectors     FFT dimensions: (  30,  30,  30)

     Estimated max dynamical RAM per process >       3.42 MB

     Estimated total dynamical RAM >      41.00 MB

     Check: negative/imaginary core charge=   -0.000166    0.000000

     The potential is recalculated from file :
     calc/_ph0/germanium.save/charge-density.dat

     Starting wfcs are   18 atomic wfcs
     Checking if some PAW data can be deallocated... 

     Band Structure Calculation
     Davidson diagonalization with overlap

     ethr =  3.57E-11,  avg # of iterations = 12.4

     total cpu time spent up to now is       10.8 secs

     End of band structure calculation

     Number of k-points >= 100: set verbosity='high' to print the bands.

     highest occupied level (ev):     9.6039

     Writing output data file germanium.save/

     BETA-TIN PHONONS                                                           

     bravais-lattice index     =            0
     lattice parameter (alat)  =       7.8793  a.u.
     unit-cell volume          =     279.7989 (a.u.)^3
     number of atoms/cell      =            2
     number of atomic types    =            1
     kinetic-energy cut-off    =      35.0000  Ry
     charge density cut-off    =     140.0000  Ry
     convergence threshold     =      5.0E-14
     beta                      =       0.7000
     number of iterations used =            4
     Exchange-correlation      = PBE ( 1  4  3  4 0 0)


     celldm(1)=   10.56382  celldm(2)=    1.00000  celldm(3)=    0.47469
     celldm(4)=    0.00000  celldm(5)=    0.00000  celldm(6)=    0.00000

     crystal axes: (cart. coord. in units of alat)
               a(1) = ( -0.6704  0.6704  0.3182 )  
               a(2) = (  0.6704 -0.6704  0.3182 )  
               a(3) = (  0.6704  0.6704 -0.3182 )  

     reciprocal axes: (cart. coord. in units 2 pi/alat)
               b(1) = (  0.0000  0.7459  1.5713 )  
               b(2) = (  0.7459  0.0000  1.5713 )  
               b(3) = (  0.7459  0.7459  0.0000 )  


     Atoms inside the unit cell: 

     Cartesian axes

     site n.  atom      mass           positions (alat units)
        1     Ge  72.6400   tau(    1) = (   -0.00000    1.00553    0.07955  )
        2     Ge  72.6400   tau(    2) = (    0.67035   -0.33518    0.23866  )

     Computing dynamical matrix for 
                    q = (   0.2486259   0.2486259   0.0000000 )
 
      4 Sym.Ops. (no q -> -q+G )


     G cutoff =  220.1635  (    651 G-vectors)     FFT grid: ( 30, 30, 30)
     number of k points=   150

     PseudoPot. # 1 for Ge read from file:
     ../PP/Ge.pbe-dn-kjpaw_psl.0.2.2.UPF
     MD5 check sum: acf6dd3aa1b4e03129ff8bf786ac0282
     Pseudo is Projector augmented-wave + core cor, Zval = 14.0
     Generated using "atomic" code by A. Dal Corso v.5.0.2 svn rev. 9415
     Shape of augmentation charge: PSQ
     Using radial grid of 1207 points,  6 beta functions with: 
                l(1) =   0
                l(2) =   0
                l(3) =   1
                l(4) =   1
                l(5) =   2
                l(6) =   2
     Q(r) pseudized with 0 coefficients 


     Mode symmetry, C_2v (mm2)  point group:


     Atomic displacements:
     There are   6 irreducible representations

     Representation     1      1 modes -A_1  D_1  S_1  To be done

     Representation     2      1 modes -A_2  D_2  S_2  To be done

     Representation     3      1 modes -B_1  D_3  S_3  To be done

     Representation     4      1 modes -B_1  D_3  S_3  To be done

     Representation     5      1 modes -B_2  D_4  S_4  To be done

     Representation     6      1 modes -B_2  D_4  S_4  To be done



     Alpha used in Ewald sum =   1.3000
     PHONON       :  1m52.36s CPU     1m57.19s WALL



     Representation #  1 mode #   1

     Self-consistent Calculation

      iter #   1 total cpu time :   118.9 secs   av.it.:   7.7
      thresh= 1.000E-02 alpha_mix =  0.700 |ddv_scf|^2 =  2.748E-02

      iter #   2 total cpu time :   120.7 secs   av.it.:   8.6
      thresh= 1.000E-02 alpha_mix =  0.700 |ddv_scf|^2 =  1.253E+00

      iter #   3 total cpu time :   122.0 secs   av.it.:   8.5
      thresh= 1.000E-02 alpha_mix =  0.700 |ddv_scf|^2 =  4.042E-05

      iter #   4 total cpu time :   123.2 secs   av.it.:   8.8
      thresh= 6.358E-04 alpha_mix =  0.700 |ddv_scf|^2 =  1.266E-05

      iter #   5 total cpu time :   124.3 secs   av.it.:   7.4
      thresh= 3.558E-04 alpha_mix =  0.700 |ddv_scf|^2 =  8.973E-09

      iter #   6 total cpu time :   125.9 secs   av.it.:  10.1
      thresh= 9.472E-06 alpha_mix =  0.700 |ddv_scf|^2 =  6.253E-09

      iter #   7 total cpu time :   127.1 secs   av.it.:   8.8
      thresh= 7.908E-06 alpha_mix =  0.700 |ddv_scf|^2 =  4.526E-11

      iter #   8 total cpu time :   128.3 secs   av.it.:   8.8
      thresh= 6.728E-07 alpha_mix =  0.700 |ddv_scf|^2 =  2.629E-13

      iter #   9 total cpu time :   129.6 secs   av.it.:   8.8
      thresh= 5.127E-08 alpha_mix =  0.700 |ddv_scf|^2 =  2.091E-14

     End of self-consistent calculation

     Convergence has been achieved 


     Representation #  2 mode #   2

     Self-consistent Calculation

      iter #   1 total cpu time :   131.0 secs   av.it.:   7.6
      thresh= 1.000E-02 alpha_mix =  0.700 |ddv_scf|^2 =  9.849E-04

      iter #   2 total cpu time :   132.2 secs   av.it.:   8.8
      thresh= 3.138E-03 alpha_mix =  0.700 |ddv_scf|^2 =  4.506E-03

      iter #   3 total cpu time :   133.3 secs   av.it.:   7.6
      thresh= 6.713E-03 alpha_mix =  0.700 |ddv_scf|^2 =  1.454E-05

      iter #   4 total cpu time :   134.6 secs   av.it.:   9.2
      thresh= 3.813E-04 alpha_mix =  0.700 |ddv_scf|^2 =  6.556E-07

      iter #   5 total cpu time :   135.8 secs   av.it.:   9.2
      thresh= 8.097E-05 alpha_mix =  0.700 |ddv_scf|^2 =  4.728E-09

      iter #   6 total cpu time :   137.2 secs   av.it.:  10.1
      thresh= 6.876E-06 alpha_mix =  0.700 |ddv_scf|^2 =  6.130E-10

      iter #   7 total cpu time :   138.5 secs   av.it.:   9.5
      thresh= 2.476E-06 alpha_mix =  0.700 |ddv_scf|^2 =  1.178E-11

      iter #   8 total cpu time :   139.8 secs   av.it.:   9.5
      thresh= 3.432E-07 alpha_mix =  0.700 |ddv_scf|^2 =  8.998E-13

      iter #   9 total cpu time :   141.2 secs   av.it.:   9.9
      thresh= 9.486E-08 alpha_mix =  0.700 |ddv_scf|^2 =  7.060E-14

      iter #  10 total cpu time :   142.4 secs   av.it.:   9.3
      thresh= 2.657E-08 alpha_mix =  0.700 |ddv_scf|^2 =  1.729E-15

     End of self-consistent calculation

     Convergence has been achieved 


     Representation #  3 mode #   3

     Self-consistent Calculation

      iter #   1 total cpu time :   143.5 secs   av.it.:   6.8
      thresh= 1.000E-02 alpha_mix =  0.700 |ddv_scf|^2 =  3.523E-05

      iter #   2 total cpu time :   144.8 secs   av.it.:   9.1
      thresh= 5.935E-04 alpha_mix =  0.700 |ddv_scf|^2 =  8.219E-07

      iter #   3 total cpu time :   146.3 secs   av.it.:   9.5
      thresh= 9.066E-05 alpha_mix =  0.700 |ddv_scf|^2 =  4.936E-08

      iter #   4 total cpu time :   147.6 secs   av.it.:   9.4
      thresh= 2.222E-05 alpha_mix =  0.700 |ddv_scf|^2 =  2.436E-09

      iter #   5 total cpu time :   148.9 secs   av.it.:   9.4
      thresh= 4.936E-06 alpha_mix =  0.700 |ddv_scf|^2 =  2.672E-11

      iter #   6 total cpu time :   150.1 secs   av.it.:   9.3
      thresh= 5.170E-07 alpha_mix =  0.700 |ddv_scf|^2 =  1.402E-13

      iter #   7 total cpu time :   152.0 secs   av.it.:   9.1
      thresh= 3.744E-08 alpha_mix =  0.700 |ddv_scf|^2 =  3.999E-15

     End of self-consistent calculation

     Convergence has been achieved 


     Representation #  4 mode #   4

     Self-consistent Calculation

      iter #   1 total cpu time :   153.6 secs   av.it.:   7.2
      thresh= 1.000E-02 alpha_mix =  0.700 |ddv_scf|^2 =  6.626E-05

      iter #   2 total cpu time :   154.9 secs   av.it.:   9.3
      thresh= 8.140E-04 alpha_mix =  0.700 |ddv_scf|^2 =  5.323E-06

      iter #   3 total cpu time :   156.3 secs   av.it.:   9.2
      thresh= 2.307E-04 alpha_mix =  0.700 |ddv_scf|^2 =  6.662E-08

      iter #   4 total cpu time :   157.5 secs   av.it.:   9.4
      thresh= 2.581E-05 alpha_mix =  0.700 |ddv_scf|^2 =  1.313E-09

      iter #   5 total cpu time :   158.8 secs   av.it.:   9.3
      thresh= 3.623E-06 alpha_mix =  0.700 |ddv_scf|^2 =  3.183E-11

      iter #   6 total cpu time :   160.1 secs   av.it.:   9.1
      thresh= 5.642E-07 alpha_mix =  0.700 |ddv_scf|^2 =  5.777E-13

      iter #   7 total cpu time :   161.5 secs   av.it.:   9.5
      thresh= 7.601E-08 alpha_mix =  0.700 |ddv_scf|^2 =  3.660E-15

     End of self-consistent calculation

     Convergence has been achieved 


     Representation #  5 mode #   5

     Self-consistent Calculation

      iter #   1 total cpu time :   162.6 secs   av.it.:   7.3
      thresh= 1.000E-02 alpha_mix =  0.700 |ddv_scf|^2 =  1.294E-04

      iter #   2 total cpu time :   163.9 secs   av.it.:   9.3
      thresh= 1.138E-03 alpha_mix =  0.700 |ddv_scf|^2 =  3.526E-05

      iter #   3 total cpu time :   165.1 secs   av.it.:   8.9
      thresh= 5.938E-04 alpha_mix =  0.700 |ddv_scf|^2 =  1.197E-07

      iter #   4 total cpu time :   166.4 secs   av.it.:   9.4
      thresh= 3.460E-05 alpha_mix =  0.700 |ddv_scf|^2 =  2.885E-09

      iter #   5 total cpu time :   167.6 secs   av.it.:   9.4
      thresh= 5.371E-06 alpha_mix =  0.700 |ddv_scf|^2 =  9.317E-11

      iter #   6 total cpu time :   168.9 secs   av.it.:   9.3
      thresh= 9.652E-07 alpha_mix =  0.700 |ddv_scf|^2 =  6.359E-13

      iter #   7 total cpu time :   170.2 secs   av.it.:   9.5
      thresh= 7.974E-08 alpha_mix =  0.700 |ddv_scf|^2 =  1.363E-14

     End of self-consistent calculation

     Convergence has been achieved 


     Representation #  6 mode #   6

     Self-consistent Calculation

      iter #   1 total cpu time :   171.4 secs   av.it.:   6.9
      thresh= 1.000E-02 alpha_mix =  0.700 |ddv_scf|^2 =  5.073E-05

      iter #   2 total cpu time :   172.7 secs   av.it.:   9.3
      thresh= 7.123E-04 alpha_mix =  0.700 |ddv_scf|^2 =  6.671E-06

      iter #   3 total cpu time :   173.9 secs   av.it.:   9.2
      thresh= 2.583E-04 alpha_mix =  0.700 |ddv_scf|^2 =  2.336E-07

      iter #   4 total cpu time :   175.2 secs   av.it.:   9.3
      thresh= 4.833E-05 alpha_mix =  0.700 |ddv_scf|^2 =  5.898E-09

      iter #   5 total cpu time :   176.6 secs   av.it.:   9.5
      thresh= 7.680E-06 alpha_mix =  0.700 |ddv_scf|^2 =  4.874E-11

      iter #   6 total cpu time :   177.9 secs   av.it.:   9.5
      thresh= 6.981E-07 alpha_mix =  0.700 |ddv_scf|^2 =  2.432E-13

      iter #   7 total cpu time :   179.1 secs   av.it.:   9.0
      thresh= 4.932E-08 alpha_mix =  0.700 |ddv_scf|^2 =  1.468E-14

     End of self-consistent calculation

     Convergence has been achieved 
 
     Number of q in the star =    4
     List of q in the star:
          1   0.248625883   0.248625883   0.000000000
          2  -0.248625883  -0.248625883   0.000000000
          3  -0.248625883   0.248625883   0.000000000
          4   0.248625883  -0.248625883   0.000000000

     Diagonalizing the dynamical matrix

     q = (    0.248625883   0.248625883   0.000000000 ) 

 **************************************************************************
     freq (    1) =       1.144510 [THz] =      38.176742 [cm-1]
     freq (    2) =       1.514805 [THz] =      50.528453 [cm-1]
     freq (    3) =       1.521324 [THz] =      50.745896 [cm-1]
     freq (    4) =       2.018902 [THz] =      67.343332 [cm-1]
     freq (    5) =       3.279234 [THz] =     109.383487 [cm-1]
     freq (    6) =       3.591130 [THz] =     119.787211 [cm-1]
 **************************************************************************

     Mode symmetry, C_2v (mm2)  point group:

     freq (  1 -  1) =         38.2  [cm-1]   --> B_1  D_3  S_3      
     freq (  2 -  2) =         50.5  [cm-1]   --> B_2  D_4  S_4      
     freq (  3 -  3) =         50.7  [cm-1]   --> B_1  D_3  S_3      
     freq (  4 -  4) =         67.3  [cm-1]   --> B_2  D_4  S_4      
     freq (  5 -  5) =        109.4  [cm-1]   --> A_2  D_2  S_2      
     freq (  6 -  6) =        119.8  [cm-1]   --> A_1  D_1  S_1      

     Calculation of q =   -0.3729388  -0.3729388   0.0000000
 
     Parallelization info
     --------------------
     sticks:   dense  smooth     PW     G-vecs:    dense   smooth      PW
     Min          34      34     14                  650      650     179
     Max          35      35     15                  654      654     182
     Sum         413     413    173                 7821     7821    2155
 

     Title: 
     BETA-TIN PHONONS                                                           


     bravais-lattice index     =            0
     lattice parameter (alat)  =       7.8793  a.u.
     unit-cell volume          =     279.7989 (a.u.)^3
     number of atoms/cell      =            2
     number of atomic types    =            1
     number of electrons       =        28.00
     number of Kohn-Sham states=           14
     kinetic-energy cutoff     =      35.0000  Ry
     charge density cutoff     =     140.0000  Ry
     Exchange-correlation      = PBE ( 1  4  3  4 0 0)

     celldm(1)=  10.563818  celldm(2)=   1.000000  celldm(3)=   0.474693
     celldm(4)=   0.000000  celldm(5)=   0.000000  celldm(6)=   0.000000

     crystal axes: (cart. coord. in units of alat)
               a(1) = (  -0.670351   0.670351   0.318211 )  
               a(2) = (   0.670351  -0.670351   0.318211 )  
               a(3) = (   0.670351   0.670351  -0.318211 )  

     reciprocal axes: (cart. coord. in units 2 pi/alat)
               b(1) = (  0.000000  0.745878  1.571283 )  
               b(2) = (  0.745878  0.000000  1.571283 )  
               b(3) = (  0.745878  0.745878  0.000000 )  


     PseudoPot. # 1 for Ge read from file:
     ../PP/Ge.pbe-dn-kjpaw_psl.0.2.2.UPF
     MD5 check sum: acf6dd3aa1b4e03129ff8bf786ac0282
     Pseudo is Projector augmented-wave + core cor, Zval = 14.0
     Generated using "atomic" code by A. Dal Corso v.5.0.2 svn rev. 9415
     Shape of augmentation charge: PSQ
     Using radial grid of 1207 points,  6 beta functions with: 
                l(1) =   0
                l(2) =   0
                l(3) =   1
                l(4) =   1
                l(5) =   2
                l(6) =   2
     Q(r) pseudized with 0 coefficients 


     atomic species   valence    mass     pseudopotential
        Ge            14.00    72.64000     Ge( 1.00)

     16 Sym. Ops., with inversion, found



   Cartesian axes

     site n.     atom                  positions (alat units)
         1           Ge  tau(   1) = (  -0.0000000   1.0055268   0.0795528  )
         2           Ge  tau(   2) = (   0.6703512  -0.3351756   0.2386585  )

     number of k points=    92
                       cart. coord. in units 2pi/alat
        k(    1) = (   0.0000000   0.0000000   0.0000000), wk =   0.0092593
        k(    2) = (  -0.3729388  -0.3729388   0.0000000), wk =   0.0000000
        k(    3) = (   0.1243129   0.1243129   0.0000000), wk =   0.0185185
        k(    4) = (  -0.2486259  -0.2486259   0.0000000), wk =   0.0000000
        k(    5) = (   0.2486259   0.2486259   0.0000000), wk =   0.0185185
        k(    6) = (  -0.1243129  -0.1243129   0.0000000), wk =   0.0000000
        k(    7) = (  -0.3729388  -0.3729388   0.0000000), wk =   0.0092593
        k(    8) = (  -0.7458776  -0.7458776   0.0000000), wk =   0.0000000
        k(    9) = (   0.1243129   0.0000000   0.2618805), wk =   0.0740741
        k(   10) = (  -0.2486259  -0.3729388   0.2618805), wk =   0.0000000
        k(   11) = (   0.2486259   0.1243129   0.2618805), wk =   0.0740741
        k(   12) = (  -0.1243129  -0.2486259   0.2618805), wk =   0.0000000
        k(   13) = (   0.3729388   0.2486259   0.2618805), wk =   0.0740741
        k(   14) = (   0.0000000  -0.1243129   0.2618805), wk =   0.0000000
        k(   15) = (   0.2486259   0.0000000   0.5237609), wk =   0.0740741
        k(   16) = (  -0.1243129  -0.3729388   0.5237609), wk =   0.0000000
        k(   17) = (   0.3729388   0.1243129   0.5237609), wk =   0.0740741
        k(   18) = (   0.0000000  -0.2486259   0.5237609), wk =   0.0000000
        k(   19) = (   0.4972518   0.2486259   0.5237609), wk =   0.0370370
        k(   20) = (   0.1243129  -0.1243129   0.5237609), wk =   0.0000000
        k(   21) = (   0.1243129  -0.1243129   0.5237609), wk =   0.0370370
        k(   22) = (  -0.2486259  -0.4972518   0.5237609), wk =   0.0000000
        k(   23) = (  -0.3729388   0.0000000  -0.7856414), wk =   0.0370370
        k(   24) = (  -0.7458776  -0.3729388  -0.7856414), wk =   0.0000000
        k(   25) = (  -0.2486259   0.1243129  -0.7856414), wk =   0.0740741
        k(   26) = (  -0.6215647  -0.2486259  -0.7856414), wk =   0.0000000
        k(   27) = (   0.2486259   0.2486259   0.5237609), wk =   0.0370370
        k(   28) = (  -0.1243129  -0.1243129   0.5237609), wk =   0.0000000
        k(   29) = (   0.3729388   0.3729388   0.5237609), wk =   0.0185185
        k(   30) = (   0.0000000   0.0000000   0.5237609), wk =   0.0000000
        k(   31) = (   0.0000000   0.0000000   0.5237609), wk =   0.0185185
        k(   32) = (  -0.3729388  -0.3729388   0.5237609), wk =   0.0000000
        k(   33) = (   0.3729388   0.2486259   0.7856414), wk =   0.0740741
        k(   34) = (   0.0000000  -0.1243129   0.7856414), wk =   0.0000000
        k(   35) = (  -0.0000000  -0.1243129   0.7856414), wk =   0.0740741
        k(   36) = (  -0.3729388  -0.4972518   0.7856414), wk =   0.0000000
        k(   37) = (  -0.7458776  -0.2486259  -0.5237609), wk =   0.0740741
        k(   38) = (  -1.1188165  -0.6215647  -0.5237609), wk =   0.0000000
        k(   39) = (  -0.6215647  -0.1243129  -0.5237609), wk =   0.0370370
        k(   40) = (  -0.9945035  -0.4972518  -0.5237609), wk =   0.0000000
        k(   41) = (  -0.0000000   0.3729388  -0.2618805), wk =   0.0740741
        k(   42) = (  -0.3729388   0.0000000  -0.2618805), wk =   0.0000000
        k(   43) = (  -0.6215647  -0.2486259  -0.2618805), wk =   0.0740741
        k(   44) = (  -0.9945035  -0.6215647  -0.2618805), wk =   0.0000000
        k(   45) = (   0.0000000   0.2486259   0.0000000), wk =   0.0370370
        k(   46) = (  -0.3729388  -0.1243129   0.0000000), wk =   0.0000000
        k(   47) = (   0.1243129   0.3729388   0.0000000), wk =   0.0370370
        k(   48) = (  -0.2486259   0.0000000   0.0000000), wk =   0.0000000
        k(   49) = (  -0.4972518  -0.2486259   0.0000000), wk =   0.0185185
        k(   50) = (  -0.8701906  -0.6215647   0.0000000), wk =   0.0000000
        k(   51) = (  -0.0000000  -0.0000000   1.0475219), wk =   0.0185185
        k(   52) = (  -0.3729388  -0.3729388   1.0475219), wk =   0.0000000
        k(   53) = (  -0.7458776  -0.1243129  -0.2618805), wk =   0.0740741
        k(   54) = (  -1.1188165  -0.4972518  -0.2618805), wk =   0.0000000
        k(   55) = (  -0.0000000   0.4972518  -0.0000000), wk =   0.0370370
        k(   56) = (  -0.3729388   0.1243129  -0.0000000), wk =   0.0000000
        k(   57) = (  -0.6215647  -0.1243129  -0.0000000), wk =   0.0185185
        k(   58) = (  -0.9945035  -0.4972518  -0.0000000), wk =   0.0000000
        k(   59) = (  -0.7458776  -0.7458776  -1.5712828), wk =   0.0092593
        k(   60) = (  -1.1188165  -1.1188165  -1.5712828), wk =   0.0000000
        k(   61) = (   0.1243129  -0.1243129   0.0000000), wk =   0.0185185
        k(   62) = (  -0.2486259  -0.4972518   0.0000000), wk =   0.0000000
        k(   63) = (   0.2486259  -0.2486259   0.0000000), wk =   0.0185185
        k(   64) = (  -0.1243129  -0.6215647   0.0000000), wk =   0.0000000
        k(   65) = (  -0.3729388   0.3729388   0.0000000), wk =   0.0092593
        k(   66) = (  -0.7458776   0.0000000   0.0000000), wk =   0.0000000
        k(   67) = (   0.2486259  -0.1243129   0.2618805), wk =   0.0740741
        k(   68) = (  -0.1243129  -0.4972518   0.2618805), wk =   0.0000000
        k(   69) = (   0.3729388  -0.2486259   0.2618805), wk =   0.0740741
        k(   70) = (   0.0000000  -0.6215647   0.2618805), wk =   0.0000000
        k(   71) = (   0.3729388  -0.1243129   0.5237609), wk =   0.0740741
        k(   72) = (   0.0000000  -0.4972518   0.5237609), wk =   0.0000000
        k(   73) = (   0.4972518  -0.2486259   0.5237609), wk =   0.0370370
        k(   74) = (   0.1243129  -0.6215647   0.5237609), wk =   0.0000000
        k(   75) = (   0.1243129   0.1243129   0.5237609), wk =   0.0370370
        k(   76) = (  -0.2486259  -0.2486259   0.5237609), wk =   0.0000000
        k(   77) = (  -0.2486259  -0.1243129  -0.7856414), wk =   0.0740741
        k(   78) = (  -0.6215647  -0.4972518  -0.7856414), wk =   0.0000000
        k(   79) = (   0.2486259  -0.2486259   0.5237609), wk =   0.0370370
        k(   80) = (  -0.1243129  -0.6215647   0.5237609), wk =   0.0000000
        k(   81) = (   0.3729388  -0.3729388   0.5237609), wk =   0.0185185
        k(   82) = (   0.0000000  -0.7458776   0.5237609), wk =   0.0000000
        k(   83) = (  -0.6215647   0.1243129  -0.5237609), wk =   0.0370370
        k(   84) = (  -0.9945035  -0.2486259  -0.5237609), wk =   0.0000000
        k(   85) = (  -0.6215647   0.2486259  -0.2618805), wk =   0.0740741
        k(   86) = (  -0.9945035  -0.1243129  -0.2618805), wk =   0.0000000
        k(   87) = (   0.1243129  -0.3729388   0.0000000), wk =   0.0370370
        k(   88) = (  -0.2486259  -0.7458776   0.0000000), wk =   0.0000000
        k(   89) = (  -0.4972518   0.2486259   0.0000000), wk =   0.0185185
        k(   90) = (  -0.8701906  -0.1243129   0.0000000), wk =   0.0000000
        k(   91) = (  -0.6215647   0.1243129  -0.0000000), wk =   0.0185185
        k(   92) = (  -0.9945035  -0.2486259  -0.0000000), wk =   0.0000000

     Dense  grid:     7821 G-vectors     FFT dimensions: (  30,  30,  30)

     Estimated max dynamical RAM per process >       3.43 MB

     Estimated total dynamical RAM >      41.18 MB

     Check: negative/imaginary core charge=   -0.000166    0.000000

     The potential is recalculated from file :
     calc/_ph0/germanium.save/charge-density.dat

     Starting wfcs are   18 atomic wfcs
     Checking if some PAW data can be deallocated... 

     Band Structure Calculation
     Davidson diagonalization with overlap

     ethr =  3.57E-11,  avg # of iterations = 12.3

     total cpu time spent up to now is       14.0 secs

     End of band structure calculation

          k = 0.0000 0.0000 0.0000 (   969 PWs)   bands (ev):

   -15.2355 -15.2156 -15.1883 -15.1322 -15.0399 -15.0329 -15.0329 -15.0316
   -15.0316 -15.0069  -3.0033   3.5464   6.8838   6.8838

          k =-0.3729-0.3729 0.0000 (   990 PWs)   bands (ev):

   -15.2280 -15.2280 -15.1095 -15.1095 -15.0833 -15.0833 -15.0290 -15.0290
   -15.0231 -15.0231  -0.8134  -0.8134   9.3625   9.3625

          k = 0.1243 0.1243 0.0000 (   976 PWs)   bands (ev):

   -15.2348 -15.2173 -15.1786 -15.1251 -15.0460 -15.0409 -15.0322 -15.0303
   -15.0301 -15.0116  -2.7551   2.5340   7.1643   7.5024

          k =-0.2486-0.2486 0.0000 (   982 PWs)   bands (ev):

   -15.2324 -15.2222 -15.1498 -15.1070 -15.0685 -15.0613 -15.0302 -15.0288
   -15.0268 -15.0179  -2.0166   0.7810   7.9982   8.5912

          k = 0.2486 0.2486 0.0000 (   982 PWs)   bands (ev):

   -15.2324 -15.2222 -15.1498 -15.1070 -15.0685 -15.0613 -15.0302 -15.0288
   -15.0268 -15.0179  -2.0166   0.7810   7.9982   8.5912

          k =-0.1243-0.1243 0.0000 (   976 PWs)   bands (ev):

   -15.2348 -15.2173 -15.1786 -15.1251 -15.0460 -15.0409 -15.0322 -15.0303
   -15.0301 -15.0116  -2.7551   2.5340   7.1643   7.5024

          k =-0.3729-0.3729 0.0000 (   990 PWs)   bands (ev):

   -15.2280 -15.2280 -15.1095 -15.1095 -15.0833 -15.0833 -15.0290 -15.0290
   -15.0231 -15.0231  -0.8134  -0.8134   9.3625   9.3625

          k =-0.7459-0.7459 0.0000 (   969 PWs)   bands (ev):

   -15.2355 -15.2156 -15.1883 -15.1322 -15.0399 -15.0329 -15.0329 -15.0316
   -15.0316 -15.0069  -3.0033   3.5464   6.8838   6.8838

          k = 0.1243 0.0000 0.2619 (   986 PWs)   bands (ev):

   -15.1816 -15.1760 -15.1494 -15.1229 -15.0629 -15.0604 -15.0509 -15.0482
   -15.0420 -15.0113  -2.2938   3.5830   7.1414   8.2253

          k =-0.2486-0.3729 0.2619 (   981 PWs)   bands (ev):

   -15.1729 -15.1655 -15.1306 -15.0955 -15.0917 -15.0696 -15.0530 -15.0491
   -15.0431 -15.0318  -0.8330   0.5590   8.0964   9.6039

          k = 0.2486 0.1243 0.2619 (   982 PWs)   bands (ev):

   -15.1765 -15.1651 -15.1528 -15.1112 -15.0667 -15.0599 -15.0530 -15.0514
   -15.0467 -15.0205  -1.8013   2.2142   7.1806   9.5745

          k =-0.1243-0.2486 0.2619 (   982 PWs)   bands (ev):

   -15.1765 -15.1651 -15.1528 -15.1112 -15.0667 -15.0599 -15.0530 -15.0514
   -15.0467 -15.0205  -1.8013   2.2142   7.1806   9.5745

          k = 0.3729 0.2486 0.2619 (   981 PWs)   bands (ev):

   -15.1729 -15.1655 -15.1306 -15.0955 -15.0917 -15.0696 -15.0530 -15.0491
   -15.0431 -15.0318  -0.8330   0.5590   8.0964   9.6039

          k = 0.0000-0.1243 0.2619 (   986 PWs)   bands (ev):

   -15.1816 -15.1760 -15.1494 -15.1229 -15.0629 -15.0604 -15.0509 -15.0482
   -15.0420 -15.0113  -2.2938   3.5830   7.1414   8.2253

          k = 0.2486 0.0000 0.5238 (   979 PWs)   bands (ev):

   -15.1592 -15.1185 -15.1105 -15.1039 -15.0991 -15.0871 -15.0508 -15.0484
   -15.0242 -15.0162  -0.1731   4.3330   8.0789   8.7013

          k =-0.1243-0.3729 0.5238 (   981 PWs)   bands (ev):

   -15.1499 -15.1212 -15.1165 -15.0979 -15.0931 -15.0852 -15.0580 -15.0429
   -15.0345 -15.0186   0.5397   3.0937   7.8151   8.3741

          k = 0.3729 0.1243 0.5238 (   981 PWs)   bands (ev):

   -15.1499 -15.1212 -15.1165 -15.0979 -15.0931 -15.0852 -15.0580 -15.0429
   -15.0345 -15.0186   0.5397   3.0937   7.8151   8.3741

          k = 0.0000-0.2486 0.5238 (   979 PWs)   bands (ev):

   -15.1592 -15.1185 -15.1105 -15.1039 -15.0991 -15.0871 -15.0508 -15.0484
   -15.0242 -15.0162  -0.1731   4.3330   8.0789   8.7013

          k = 0.4973 0.2486 0.5238 (   974 PWs)   bands (ev):

   -15.1453 -15.1260 -15.1113 -15.1026 -15.0859 -15.0704 -15.0681 -15.0592
   -15.0265 -15.0218   1.6320   1.7236   7.6828   9.0483

          k = 0.1243-0.1243 0.5238 (   983 PWs)   bands (ev):

   -15.1639 -15.1181 -15.1118 -15.1014 -15.0947 -15.0912 -15.0587 -15.0451
   -15.0205 -15.0131  -0.4146   4.7579   8.9151   9.4946

          k = 0.1243-0.1243 0.5238 (   983 PWs)   bands (ev):

   -15.1639 -15.1181 -15.1118 -15.1014 -15.0947 -15.0912 -15.0587 -15.0451
   -15.0205 -15.0131  -0.4146   4.7579   8.9151   9.4946

          k =-0.2486-0.4973 0.5238 (   974 PWs)   bands (ev):

   -15.1453 -15.1260 -15.1113 -15.1026 -15.0859 -15.0704 -15.0681 -15.0592
   -15.0265 -15.0218   1.6320   1.7236   7.6828   9.0483

          k =-0.3729 0.0000-0.7856 (   974 PWs)   bands (ev):

   -15.1564 -15.1424 -15.1368 -15.1073 -15.1057 -15.0883 -15.0538 -15.0409
   -14.9829 -14.9591   2.6896   4.0150   6.6027   7.1724

          k =-0.7459-0.3729-0.7856 (   974 PWs)   bands (ev):

   -15.1564 -15.1424 -15.1368 -15.1073 -15.1057 -15.0883 -15.0538 -15.0409
   -14.9829 -14.9591   2.6896   4.0150   6.6027   7.1724

          k =-0.2486 0.1243-0.7856 (   981 PWs)   bands (ev):

   -15.1620 -15.1412 -15.1278 -15.1124 -15.1044 -15.0875 -15.0542 -15.0439
   -14.9812 -14.9595   2.5871   4.4663   5.8112   7.2905

          k =-0.6216-0.2486-0.7856 (   981 PWs)   bands (ev):

   -15.1620 -15.1412 -15.1278 -15.1124 -15.1044 -15.0875 -15.0542 -15.0439
   -14.9812 -14.9595   2.5871   4.4663   5.8112   7.2905

          k = 0.2486 0.2486 0.5238 (   976 PWs)   bands (ev):

   -15.1540 -15.1219 -15.1107 -15.1018 -15.0964 -15.0800 -15.0579 -15.0436
   -15.0286 -15.0221   0.3136   3.0529   8.7957   9.0982

          k =-0.1243-0.1243 0.5238 (   983 PWs)   bands (ev):

   -15.1639 -15.1181 -15.1118 -15.1014 -15.0947 -15.0912 -15.0587 -15.0451
   -15.0205 -15.0131  -0.4146   4.7579   8.9151   9.4946

          k = 0.3729 0.3729 0.5238 (   978 PWs)   bands (ev):

   -15.1375 -15.1375 -15.1116 -15.1116 -15.0759 -15.0759 -15.0547 -15.0547
   -15.0287 -15.0287   1.4954   1.4954   8.8042   8.8042

          k = 0.0000 0.0000 0.5238 (   981 PWs)   bands (ev):

   -15.1668 -15.1158 -15.1158 -15.1119 -15.0863 -15.0863 -15.0668 -15.0409
   -15.0207 -15.0073  -0.6599   5.7466   8.9382   8.9382

          k = 0.0000 0.0000 0.5238 (   981 PWs)   bands (ev):

   -15.1668 -15.1158 -15.1158 -15.1119 -15.0863 -15.0863 -15.0668 -15.0409
   -15.0207 -15.0073  -0.6599   5.7466   8.9382   8.9382

          k =-0.3729-0.3729 0.5238 (   978 PWs)   bands (ev):

   -15.1375 -15.1375 -15.1116 -15.1116 -15.0759 -15.0759 -15.0547 -15.0547
   -15.0287 -15.0287   1.4954   1.4954   8.8042   8.8042

          k = 0.3729 0.2486 0.7856 (   980 PWs)   bands (ev):

   -15.1604 -15.1441 -15.1340 -15.1223 -15.0857 -15.0727 -15.0638 -15.0464
   -14.9784 -14.9658   3.1409   4.0562   5.4659   6.2013

          k = 0.0000-0.1243 0.7856 (   983 PWs)   bands (ev):

   -15.1566 -15.1413 -15.1287 -15.1119 -15.1068 -15.0954 -15.0499 -15.0479
   -14.9803 -14.9559   2.2052   5.1586   5.9918   8.3938

          k =-0.0000-0.1243 0.7856 (   983 PWs)   bands (ev):

   -15.1566 -15.1413 -15.1287 -15.1119 -15.1068 -15.0954 -15.0499 -15.0479
   -14.9803 -14.9559   2.2052   5.1586   5.9918   8.3938

          k =-0.3729-0.4973 0.7856 (   980 PWs)   bands (ev):

   -15.1604 -15.1441 -15.1340 -15.1223 -15.0857 -15.0727 -15.0638 -15.0464
   -14.9784 -14.9658   3.1409   4.0562   5.4659   6.2013

          k =-0.7459-0.2486-0.5238 (   974 PWs)   bands (ev):

   -15.1438 -15.1180 -15.1166 -15.0988 -15.0883 -15.0862 -15.0632 -15.0585
   -15.0267 -15.0171   1.1872   2.9218   6.9219   7.3875

          k =-1.1188-0.6216-0.5238 (   981 PWs)   bands (ev):

   -15.1499 -15.1212 -15.1165 -15.0979 -15.0931 -15.0852 -15.0580 -15.0429
   -15.0345 -15.0186   0.5397   3.0937   7.8151   8.3741

          k =-0.6216-0.1243-0.5238 (   972 PWs)   bands (ev):

   -15.1436 -15.1196 -15.1028 -15.0975 -15.0912 -15.0846 -15.0781 -15.0592
   -15.0237 -15.0164   2.0273   2.2298   6.8818   7.2927

          k =-0.9945-0.4973-0.5238 (   976 PWs)   bands (ev):

   -15.1540 -15.1219 -15.1107 -15.1018 -15.0964 -15.0800 -15.0579 -15.0436
   -15.0286 -15.0221   0.3136   3.0529   8.7957   9.0982

          k =-0.0000 0.3729-0.2619 (   974 PWs)   bands (ev):

   -15.1788 -15.1625 -15.1429 -15.1025 -15.0706 -15.0621 -15.0586 -15.0468
   -15.0466 -15.0315  -1.3248   1.8657   5.7731   9.1565

          k =-0.3729 0.0000-0.2619 (   974 PWs)   bands (ev):

   -15.1788 -15.1625 -15.1429 -15.1025 -15.0706 -15.0621 -15.0586 -15.0468
   -15.0466 -15.0315  -1.3248   1.8657   5.7731   9.1565

          k =-0.6216-0.2486-0.2619 (   975 PWs)   bands (ev):

   -15.1779 -15.1677 -15.1185 -15.0890 -15.0876 -15.0697 -15.0578 -15.0509
   -15.0443 -15.0388  -0.4094   0.8082   5.9301   7.2075

          k =-0.9945-0.6216-0.2619 (   982 PWs)   bands (ev):

   -15.1765 -15.1651 -15.1528 -15.1112 -15.0667 -15.0599 -15.0530 -15.0514
   -15.0467 -15.0205  -1.8013   2.2142   7.1806   9.5745

          k = 0.0000 0.2486 0.0000 (   986 PWs)   bands (ev):

   -15.2346 -15.2192 -15.1689 -15.1191 -15.0508 -15.0465 -15.0327 -15.0309
   -15.0286 -15.0157  -2.5097   2.1172   5.8859   9.3622

          k =-0.3729-0.1243 0.0000 (   984 PWs)   bands (ev):

   -15.2327 -15.2235 -15.1428 -15.1029 -15.0704 -15.0633 -15.0313 -15.0299
   -15.0269 -15.0212  -1.7835   0.8413   5.9071   8.7360

          k = 0.1243 0.3729 0.0000 (   984 PWs)   bands (ev):

   -15.2327 -15.2235 -15.1428 -15.1029 -15.0704 -15.0633 -15.0313 -15.0299
   -15.0269 -15.0212  -1.7835   0.8413   5.9071   8.7360

          k =-0.2486 0.0000 0.0000 (   986 PWs)   bands (ev):

   -15.2346 -15.2192 -15.1689 -15.1191 -15.0508 -15.0465 -15.0327 -15.0309
   -15.0286 -15.0157  -2.5097   2.1172   5.8859   9.3622

          k =-0.4973-0.2486 0.0000 (   990 PWs)   bands (ev):

   -15.2288 -15.2288 -15.1069 -15.1069 -15.0823 -15.0823 -15.0297 -15.0297
   -15.0250 -15.0250  -0.6190  -0.6190   6.9906   6.9906

          k =-0.8702-0.6216 0.0000 (   976 PWs)   bands (ev):

   -15.2348 -15.2173 -15.1786 -15.1251 -15.0460 -15.0409 -15.0322 -15.0303
   -15.0301 -15.0116  -2.7551   2.5340   7.1643   7.5024

          k =-0.0000-0.0000 1.0475 (   965 PWs)   bands (ev):

   -15.1382 -15.1140 -15.1140 -15.0903 -15.0885 -15.0872 -15.0872 -15.0571
   -15.0240 -15.0149   2.2871   2.5697   6.4779   6.4779

          k =-0.3729-0.3729 1.0475 (   978 PWs)   bands (ev):

   -15.1375 -15.1375 -15.1116 -15.1116 -15.0759 -15.0759 -15.0547 -15.0547
   -15.0287 -15.0287   1.4954   1.4954   8.8042   8.8042

          k =-0.7459-0.1243-0.2619 (   967 PWs)   bands (ev):

   -15.1808 -15.1704 -15.1048 -15.0853 -15.0797 -15.0699 -15.0609 -15.0565
   -15.0483 -15.0452   0.3144   0.8925   4.8677   5.4612

          k =-1.1188-0.4973-0.2619 (   981 PWs)   bands (ev):

   -15.1729 -15.1655 -15.1306 -15.0955 -15.0917 -15.0696 -15.0530 -15.0491
   -15.0431 -15.0318  -0.8330   0.5590   8.0964   9.6039

          k =-0.0000 0.4973-0.0000 (   986 PWs)   bands (ev):

   -15.2325 -15.2270 -15.1246 -15.0925 -15.0806 -15.0696 -15.0326 -15.0307
   -15.0283 -15.0262  -1.1110   0.6960   4.6234   6.5212

          k =-0.3729 0.1243-0.0000 (   984 PWs)   bands (ev):

   -15.2327 -15.2235 -15.1428 -15.1029 -15.0704 -15.0633 -15.0313 -15.0299
   -15.0269 -15.0212  -1.7835   0.8413   5.9071   8.7360

          k =-0.6216-0.1243-0.0000 (   976 PWs)   bands (ev):

   -15.2305 -15.2305 -15.1012 -15.1012 -15.0801 -15.0801 -15.0311 -15.0311
   -15.0289 -15.0289  -0.1308  -0.1308   4.9929   4.9929

          k =-0.9945-0.4973-0.0000 (   982 PWs)   bands (ev):

   -15.2324 -15.2222 -15.1498 -15.1070 -15.0685 -15.0613 -15.0302 -15.0288
   -15.0268 -15.0179  -2.0166   0.7810   7.9982   8.5912

          k =-0.7459-0.7459-1.5713 (   976 PWs)   bands (ev):

   -15.2312 -15.2312 -15.0983 -15.0983 -15.0791 -15.0791 -15.0327 -15.0327
   -15.0306 -15.0306   0.2035   0.2035   4.1495   4.1495

          k =-1.1188-1.1188-1.5713 (   990 PWs)   bands (ev):

   -15.2280 -15.2280 -15.1095 -15.1095 -15.0833 -15.0833 -15.0290 -15.0290
   -15.0231 -15.0231  -0.8134  -0.8134   9.3625   9.3625

          k = 0.1243-0.1243 0.0000 (   976 PWs)   bands (ev):

   -15.2348 -15.2173 -15.1786 -15.1251 -15.0460 -15.0409 -15.0322 -15.0303
   -15.0301 -15.0116  -2.7551   2.5340   7.1643   7.5024

          k =-0.2486-0.4973 0.0000 (   990 PWs)   bands (ev):

   -15.2288 -15.2288 -15.1069 -15.1069 -15.0823 -15.0823 -15.0297 -15.0297
   -15.0250 -15.0250  -0.6190  -0.6190   6.9906   6.9906

          k = 0.2486-0.2486 0.0000 (   982 PWs)   bands (ev):

   -15.2324 -15.2222 -15.1498 -15.1070 -15.0685 -15.0613 -15.0302 -15.0288
   -15.0268 -15.0179  -2.0166   0.7810   7.9982   8.5912

          k =-0.1243-0.6216 0.0000 (   976 PWs)   bands (ev):

   -15.2305 -15.2305 -15.1012 -15.1012 -15.0801 -15.0801 -15.0311 -15.0311
   -15.0289 -15.0289  -0.1308  -0.1308   4.9929   4.9929

          k =-0.3729 0.3729 0.0000 (   990 PWs)   bands (ev):

   -15.2280 -15.2280 -15.1095 -15.1095 -15.0833 -15.0833 -15.0290 -15.0290
   -15.0231 -15.0231  -0.8134  -0.8134   9.3625   9.3625

          k =-0.7459 0.0000 0.0000 (   976 PWs)   bands (ev):

   -15.2312 -15.2312 -15.0983 -15.0983 -15.0791 -15.0791 -15.0327 -15.0327
   -15.0306 -15.0306   0.2035   0.2035   4.1495   4.1495

          k = 0.2486-0.1243 0.2619 (   982 PWs)   bands (ev):

   -15.1765 -15.1651 -15.1528 -15.1112 -15.0667 -15.0599 -15.0530 -15.0514
   -15.0467 -15.0205  -1.8013   2.2142   7.1806   9.5745

          k =-0.1243-0.4973 0.2619 (   975 PWs)   bands (ev):

   -15.1779 -15.1677 -15.1185 -15.0890 -15.0876 -15.0697 -15.0578 -15.0509
   -15.0443 -15.0388  -0.4094   0.8082   5.9301   7.2075

          k = 0.3729-0.2486 0.2619 (   981 PWs)   bands (ev):

   -15.1729 -15.1655 -15.1306 -15.0955 -15.0917 -15.0696 -15.0530 -15.0491
   -15.0431 -15.0318  -0.8330   0.5590   8.0964   9.6039

          k = 0.0000-0.6216 0.2619 (   967 PWs)   bands (ev):

   -15.1808 -15.1704 -15.1048 -15.0853 -15.0797 -15.0699 -15.0609 -15.0565
   -15.0483 -15.0452   0.3144   0.8925   4.8677   5.4612

          k = 0.3729-0.1243 0.5238 (   981 PWs)   bands (ev):

   -15.1499 -15.1212 -15.1165 -15.0979 -15.0931 -15.0852 -15.0580 -15.0429
   -15.0345 -15.0186   0.5397   3.0937   7.8151   8.3741

          k = 0.0000-0.4973 0.5238 (   974 PWs)   bands (ev):

   -15.1438 -15.1180 -15.1166 -15.0988 -15.0883 -15.0862 -15.0632 -15.0585
   -15.0267 -15.0171   1.1872   2.9218   6.9219   7.3875

          k = 0.4973-0.2486 0.5238 (   974 PWs)   bands (ev):

   -15.1453 -15.1260 -15.1113 -15.1026 -15.0859 -15.0704 -15.0681 -15.0592
   -15.0265 -15.0218   1.6320   1.7236   7.6828   9.0483

          k = 0.1243-0.6216 0.5238 (   972 PWs)   bands (ev):

   -15.1436 -15.1196 -15.1028 -15.0975 -15.0912 -15.0846 -15.0781 -15.0592
   -15.0237 -15.0164   2.0273   2.2298   6.8818   7.2927

          k = 0.1243 0.1243 0.5238 (   983 PWs)   bands (ev):

   -15.1639 -15.1181 -15.1118 -15.1014 -15.0947 -15.0912 -15.0587 -15.0451
   -15.0205 -15.0131  -0.4146   4.7579   8.9151   9.4946

          k =-0.2486-0.2486 0.5238 (   976 PWs)   bands (ev):

   -15.1540 -15.1219 -15.1107 -15.1018 -15.0964 -15.0800 -15.0579 -15.0436
   -15.0286 -15.0221   0.3136   3.0529   8.7957   9.0982

          k =-0.2486-0.1243-0.7856 (   981 PWs)   bands (ev):

   -15.1620 -15.1412 -15.1278 -15.1124 -15.1044 -15.0875 -15.0542 -15.0439
   -14.9812 -14.9595   2.5871   4.4663   5.8112   7.2905

          k =-0.6216-0.4973-0.7856 (   981 PWs)   bands (ev):

   -15.1620 -15.1412 -15.1278 -15.1124 -15.1044 -15.0875 -15.0542 -15.0439
   -14.9812 -14.9595   2.5871   4.4663   5.8112   7.2905

          k = 0.2486-0.2486 0.5238 (   976 PWs)   bands (ev):

   -15.1540 -15.1219 -15.1107 -15.1018 -15.0964 -15.0800 -15.0579 -15.0436
   -15.0286 -15.0221   0.3136   3.0529   8.7957   9.0982

          k =-0.1243-0.6216 0.5238 (   972 PWs)   bands (ev):

   -15.1436 -15.1196 -15.1028 -15.0975 -15.0912 -15.0846 -15.0781 -15.0592
   -15.0237 -15.0164   2.0273   2.2298   6.8818   7.2927

          k = 0.3729-0.3729 0.5238 (   978 PWs)   bands (ev):

   -15.1375 -15.1375 -15.1116 -15.1116 -15.0759 -15.0759 -15.0547 -15.0547
   -15.0287 -15.0287   1.4954   1.4954   8.8042   8.8042

          k = 0.0000-0.7459 0.5238 (   965 PWs)   bands (ev):

   -15.1382 -15.1140 -15.1140 -15.0903 -15.0885 -15.0872 -15.0872 -15.0571
   -15.0240 -15.0149   2.2871   2.5697   6.4779   6.4779

          k =-0.6216 0.1243-0.5238 (   972 PWs)   bands (ev):

   -15.1436 -15.1196 -15.1028 -15.0975 -15.0912 -15.0846 -15.0781 -15.0592
   -15.0237 -15.0164   2.0273   2.2298   6.8818   7.2927

          k =-0.9945-0.2486-0.5238 (   974 PWs)   bands (ev):

   -15.1453 -15.1260 -15.1113 -15.1026 -15.0859 -15.0704 -15.0681 -15.0592
   -15.0265 -15.0218   1.6320   1.7236   7.6828   9.0483

          k =-0.6216 0.2486-0.2619 (   975 PWs)   bands (ev):

   -15.1779 -15.1677 -15.1185 -15.0890 -15.0876 -15.0697 -15.0578 -15.0509
   -15.0443 -15.0388  -0.4094   0.8082   5.9301   7.2075

          k =-0.9945-0.1243-0.2619 (   975 PWs)   bands (ev):

   -15.1779 -15.1677 -15.1185 -15.0890 -15.0876 -15.0697 -15.0578 -15.0509
   -15.0443 -15.0388  -0.4094   0.8082   5.9301   7.2075

          k = 0.1243-0.3729 0.0000 (   984 PWs)   bands (ev):

   -15.2327 -15.2235 -15.1428 -15.1029 -15.0704 -15.0633 -15.0313 -15.0299
   -15.0269 -15.0212  -1.7835   0.8413   5.9071   8.7360

          k =-0.2486-0.7459 0.0000 (   986 PWs)   bands (ev):

   -15.2325 -15.2270 -15.1246 -15.0925 -15.0806 -15.0696 -15.0326 -15.0307
   -15.0283 -15.0262  -1.1110   0.6960   4.6234   6.5212

          k =-0.4973 0.2486 0.0000 (   990 PWs)   bands (ev):

   -15.2288 -15.2288 -15.1069 -15.1069 -15.0823 -15.0823 -15.0297 -15.0297
   -15.0250 -15.0250  -0.6190  -0.6190   6.9906   6.9906

          k =-0.8702-0.1243 0.0000 (   976 PWs)   bands (ev):

   -15.2305 -15.2305 -15.1012 -15.1012 -15.0801 -15.0801 -15.0311 -15.0311
   -15.0289 -15.0289  -0.1308  -0.1308   4.9929   4.9929

          k =-0.6216 0.1243-0.0000 (   976 PWs)   bands (ev):

   -15.2305 -15.2305 -15.1012 -15.1012 -15.0801 -15.0801 -15.0311 -15.0311
   -15.0289 -15.0289  -0.1308  -0.1308   4.9929   4.9929

          k =-0.9945-0.2486-0.0000 (   990 PWs)   bands (ev):

   -15.2288 -15.2288 -15.1069 -15.1069 -15.0823 -15.0823 -15.0297 -15.0297
   -15.0250 -15.0250  -0.6190  -0.6190   6.9906   6.9906

     highest occupied level (ev):     9.6039

     Writing output data file germanium.save/

     BETA-TIN PHONONS                                                           

     bravais-lattice index     =            0
     lattice parameter (alat)  =       7.8793  a.u.
     unit-cell volume          =     279.7989 (a.u.)^3
     number of atoms/cell      =            2
     number of atomic types    =            1
     kinetic-energy cut-off    =      35.0000  Ry
     charge density cut-off    =     140.0000  Ry
     convergence threshold     =      5.0E-14
     beta                      =       0.7000
     number of iterations used =            4
     Exchange-correlation      = PBE ( 1  4  3  4 0 0)


     celldm(1)=   10.56382  celldm(2)=    1.00000  celldm(3)=    0.47469
     celldm(4)=    0.00000  celldm(5)=    0.00000  celldm(6)=    0.00000

     crystal axes: (cart. coord. in units of alat)
               a(1) = ( -0.6704  0.6704  0.3182 )  
               a(2) = (  0.6704 -0.6704  0.3182 )  
               a(3) = (  0.6704  0.6704 -0.3182 )  

     reciprocal axes: (cart. coord. in units 2 pi/alat)
               b(1) = (  0.0000  0.7459  1.5713 )  
               b(2) = (  0.7459  0.0000  1.5713 )  
               b(3) = (  0.7459  0.7459  0.0000 )  


     Atoms inside the unit cell: 

     Cartesian axes

     site n.  atom      mass           positions (alat units)
        1     Ge  72.6400   tau(    1) = (   -0.00000    1.00553    0.07955  )
        2     Ge  72.6400   tau(    2) = (    0.67035   -0.33518    0.23866  )

     Computing dynamical matrix for 
                    q = (  -0.3729388  -0.3729388   0.0000000 )
 
      9 Sym.Ops. (with q -> -q+G )


     G cutoff =  220.1635  (    651 G-vectors)     FFT grid: ( 30, 30, 30)
     number of k points=    92

     PseudoPot. # 1 for Ge read from file:
     ../PP/Ge.pbe-dn-kjpaw_psl.0.2.2.UPF
     MD5 check sum: acf6dd3aa1b4e03129ff8bf786ac0282
     Pseudo is Projector augmented-wave + core cor, Zval = 14.0
     Generated using "atomic" code by A. Dal Corso v.5.0.2 svn rev. 9415
     Shape of augmentation charge: PSQ
     Using radial grid of 1207 points,  6 beta functions with: 
                l(1) =   0
                l(2) =   0
                l(3) =   1
                l(4) =   1
                l(5) =   2
                l(6) =   2
     Q(r) pseudized with 0 coefficients 



     Atomic displacements:
     There are   3 irreducible representations

     Representation     1      2 modes -  To be done

     Representation     2      2 modes -  To be done

     Representation     3      2 modes -  To be done



     Alpha used in Ewald sum =   1.3000
     PHONON       :  2m55.19s CPU     3m 2.92s WALL



     Representation #  1 modes #   1  2

     Self-consistent Calculation

      iter #   1 total cpu time :   184.5 secs   av.it.:   7.8
      thresh= 1.000E-02 alpha_mix =  0.700 |ddv_scf|^2 =  5.411E-03

      iter #   2 total cpu time :   186.7 secs   av.it.:   9.5
      thresh= 7.356E-03 alpha_mix =  0.700 |ddv_scf|^2 =  6.108E-01

      iter #   3 total cpu time :   189.1 secs   av.it.:   8.9
      thresh= 1.000E-02 alpha_mix =  0.700 |ddv_scf|^2 =  1.312E-04

      iter #   4 total cpu time :   191.2 secs   av.it.:   8.7
      thresh= 1.145E-03 alpha_mix =  0.700 |ddv_scf|^2 =  1.815E-05

      iter #   5 total cpu time :   192.7 secs   av.it.:   7.7
      thresh= 4.260E-04 alpha_mix =  0.700 |ddv_scf|^2 =  3.569E-09

      iter #   6 total cpu time :   194.6 secs   av.it.:  11.0
      thresh= 5.974E-06 alpha_mix =  0.700 |ddv_scf|^2 =  1.343E-10

      iter #   7 total cpu time :   196.4 secs   av.it.:  10.9
      thresh= 1.159E-06 alpha_mix =  0.700 |ddv_scf|^2 =  1.349E-11

      iter #   8 total cpu time :   198.1 secs   av.it.:   9.7
      thresh= 3.672E-07 alpha_mix =  0.700 |ddv_scf|^2 =  1.504E-13

      iter #   9 total cpu time :   199.9 secs   av.it.:  10.5
      thresh= 3.878E-08 alpha_mix =  0.700 |ddv_scf|^2 =  3.132E-14

     End of self-consistent calculation

     Convergence has been achieved 


     Representation #  2 modes #   3  4

     Self-consistent Calculation

      iter #   1 total cpu time :   201.5 secs   av.it.:   7.4
      thresh= 1.000E-02 alpha_mix =  0.700 |ddv_scf|^2 =  2.207E-05

      iter #   2 total cpu time :   203.3 secs   av.it.:  10.2
      thresh= 4.698E-04 alpha_mix =  0.700 |ddv_scf|^2 =  3.575E-06

      iter #   3 total cpu time :   205.4 secs   av.it.:  10.0
      thresh= 1.891E-04 alpha_mix =  0.700 |ddv_scf|^2 =  2.200E-08

      iter #   4 total cpu time :   207.9 secs   av.it.:  10.0
      thresh= 1.483E-05 alpha_mix =  0.700 |ddv_scf|^2 =  7.007E-10

      iter #   5 total cpu time :   209.7 secs   av.it.:  10.2
      thresh= 2.647E-06 alpha_mix =  0.700 |ddv_scf|^2 =  1.338E-11

      iter #   6 total cpu time :   211.6 secs   av.it.:  10.3
      thresh= 3.658E-07 alpha_mix =  0.700 |ddv_scf|^2 =  1.622E-13

      iter #   7 total cpu time :   213.4 secs   av.it.:  10.4
      thresh= 4.027E-08 alpha_mix =  0.700 |ddv_scf|^2 =  1.086E-15

     End of self-consistent calculation

     Convergence has been achieved 


     Representation #  3 modes #   5  6

     Self-consistent Calculation

      iter #   1 total cpu time :   215.6 secs   av.it.:   6.9
      thresh= 1.000E-02 alpha_mix =  0.700 |ddv_scf|^2 =  1.208E-05

      iter #   2 total cpu time :   217.6 secs   av.it.:  10.0
      thresh= 3.475E-04 alpha_mix =  0.700 |ddv_scf|^2 =  1.273E-06

      iter #   3 total cpu time :   219.4 secs   av.it.:  10.1
      thresh= 1.128E-04 alpha_mix =  0.700 |ddv_scf|^2 =  2.875E-08

      iter #   4 total cpu time :   221.3 secs   av.it.:   9.9
      thresh= 1.696E-05 alpha_mix =  0.700 |ddv_scf|^2 =  1.607E-09

      iter #   5 total cpu time :   223.0 secs   av.it.:  10.1
      thresh= 4.009E-06 alpha_mix =  0.700 |ddv_scf|^2 =  2.283E-11

      iter #   6 total cpu time :   224.8 secs   av.it.:  10.1
      thresh= 4.778E-07 alpha_mix =  0.700 |ddv_scf|^2 =  1.529E-13

      iter #   7 total cpu time :   226.6 secs   av.it.:  10.2
      thresh= 3.910E-08 alpha_mix =  0.700 |ddv_scf|^2 =  3.514E-15

     End of self-consistent calculation

     Convergence has been achieved 
 
     Number of q in the star =    2
     List of q in the star:
          1  -0.372938824  -0.372938824   0.000000000
          2  -0.372938824   0.372938824   0.000000000

     Diagonalizing the dynamical matrix

     q = (   -0.372938824  -0.372938824   0.000000000 ) 

 **************************************************************************
     freq (    1) =      -2.258413 [THz] =     -75.332545 [cm-1]
     freq (    2) =      -2.258413 [THz] =     -75.332545 [cm-1]
     freq (    3) =       2.248208 [THz] =      74.992149 [cm-1]
     freq (    4) =       2.248208 [THz] =      74.992149 [cm-1]
     freq (    5) =       2.873268 [THz] =      95.841906 [cm-1]
     freq (    6) =       2.873268 [THz] =      95.841906 [cm-1]
 **************************************************************************

     Calculation of q =    0.1243129   0.0000000   0.2618805
 
     Parallelization info
     --------------------
     sticks:   dense  smooth     PW     G-vecs:    dense   smooth      PW
     Min          34      34     13                  650      650     160
     Max          35      35     14                  654      654     163
[...]
   -14.9829 -14.9591   2.6896   4.0150   6.6027   7.1724

          k =-0.2486 0.1243-0.7856 (   981 PWs)   bands (ev):

   -15.1620 -15.1412 -15.1278 -15.1124 -15.1044 -15.0875 -15.0542 -15.0439
   -14.9812 -14.9595   2.5871   4.4663   5.8112   7.2905

          k =-0.9945-0.6216-2.3569 (   981 PWs)   bands (ev):

   -15.1620 -15.1412 -15.1278 -15.1124 -15.1044 -15.0875 -15.0542 -15.0439
   -14.9812 -14.9595   2.5871   4.4663   5.8112   7.2905

          k = 0.2486 0.2486 0.5238 (   976 PWs)   bands (ev):

   -15.1540 -15.1219 -15.1107 -15.1018 -15.0964 -15.0800 -15.0579 -15.0436
   -15.0286 -15.0221   0.3136   3.0529   8.7957   9.0982

          k =-0.4973-0.4973-1.0475 (   974 PWs)   bands (ev):

   -15.1453 -15.1260 -15.1113 -15.1026 -15.0859 -15.0704 -15.0681 -15.0592
   -15.0265 -15.0218   1.6320   1.7236   7.6828   9.0483

          k = 0.3729 0.3729 0.5238 (   978 PWs)   bands (ev):

   -15.1375 -15.1375 -15.1116 -15.1116 -15.0759 -15.0759 -15.0547 -15.0547
   -15.0287 -15.0287   1.4954   1.4954   8.8042   8.8042

          k =-0.3729-0.3729-1.0475 (   978 PWs)   bands (ev):

   -15.1375 -15.1375 -15.1116 -15.1116 -15.0759 -15.0759 -15.0547 -15.0547
   -15.0287 -15.0287   1.4954   1.4954   8.8042   8.8042

          k = 0.0000 0.0000 0.5238 (   981 PWs)   bands (ev):

   -15.1668 -15.1158 -15.1158 -15.1119 -15.0863 -15.0863 -15.0668 -15.0409
   -15.0207 -15.0073  -0.6599   5.7466   8.9382   8.9382

          k =-0.7459-0.7459-1.0475 (   965 PWs)   bands (ev):

   -15.1382 -15.1140 -15.1140 -15.0903 -15.0885 -15.0872 -15.0872 -15.0571
   -15.0240 -15.0149   2.2871   2.5697   6.4779   6.4779

          k = 0.3729 0.2486 0.7856 (   980 PWs)   bands (ev):

   -15.1604 -15.1441 -15.1340 -15.1223 -15.0857 -15.0727 -15.0638 -15.0464
   -14.9784 -14.9658   3.1409   4.0562   5.4659   6.2013

          k =-0.3729-0.4973-0.7856 (   980 PWs)   bands (ev):

   -15.1604 -15.1441 -15.1340 -15.1223 -15.0857 -15.0727 -15.0638 -15.0464
   -14.9784 -14.9658   3.1409   4.0562   5.4659   6.2013

          k =-0.0000-0.1243 0.7856 (   983 PWs)   bands (ev):

   -15.1566 -15.1413 -15.1287 -15.1119 -15.1068 -15.0954 -15.0499 -15.0479
   -14.9803 -14.9559   2.2052   5.1586   5.9918   8.3938

          k =-0.7459-0.8702-0.7856 (   983 PWs)   bands (ev):

   -15.1566 -15.1413 -15.1287 -15.1119 -15.1068 -15.0954 -15.0499 -15.0479
   -14.9803 -14.9559   2.2052   5.1586   5.9918   8.3938

          k =-0.7459-0.2486-0.5238 (   974 PWs)   bands (ev):

   -15.1438 -15.1180 -15.1166 -15.0988 -15.0883 -15.0862 -15.0632 -15.0585
   -15.0267 -15.0171   1.1872   2.9218   6.9219   7.3875

          k =-1.4918-0.9945-2.0950 (   979 PWs)   bands (ev):

   -15.1592 -15.1185 -15.1105 -15.1039 -15.0991 -15.0871 -15.0508 -15.0484
   -15.0242 -15.0162  -0.1731   4.3330   8.0789   8.7013

          k =-0.6216-0.1243-0.5238 (   972 PWs)   bands (ev):

   -15.1436 -15.1196 -15.1028 -15.0975 -15.0912 -15.0846 -15.0781 -15.0592
   -15.0237 -15.0164   2.0273   2.2298   6.8818   7.2927

          k =-1.3674-0.8702-2.0950 (   983 PWs)   bands (ev):

   -15.1639 -15.1181 -15.1118 -15.1014 -15.0947 -15.0912 -15.0587 -15.0451
   -15.0205 -15.0131  -0.4146   4.7579   8.9151   9.4946

          k =-0.0000 0.3729-0.2619 (   974 PWs)   bands (ev):

   -15.1788 -15.1625 -15.1429 -15.1025 -15.0706 -15.0621 -15.0586 -15.0468
   -15.0466 -15.0315  -1.3248   1.8657   5.7731   9.1565

          k =-0.7459-0.3729-1.8332 (   974 PWs)   bands (ev):

   -15.1788 -15.1625 -15.1429 -15.1025 -15.0706 -15.0621 -15.0586 -15.0468
   -15.0466 -15.0315  -1.3248   1.8657   5.7731   9.1565

          k =-0.6216-0.2486-0.2619 (   975 PWs)   bands (ev):

   -15.1779 -15.1677 -15.1185 -15.0890 -15.0876 -15.0697 -15.0578 -15.0509
   -15.0443 -15.0388  -0.4094   0.8082   5.9301   7.2075

          k =-1.3674-0.9945-1.8332 (   982 PWs)   bands (ev):

   -15.1765 -15.1651 -15.1528 -15.1112 -15.0667 -15.0599 -15.0530 -15.0514
   -15.0467 -15.0205  -1.8013   2.2142   7.1806   9.5745

          k = 0.0000 0.2486 0.0000 (   986 PWs)   bands (ev):

   -15.2346 -15.2192 -15.1689 -15.1191 -15.0508 -15.0465 -15.0327 -15.0309
   -15.0286 -15.0157  -2.5097   2.1172   5.8859   9.3622

          k =-0.7459-0.4973-1.5713 (   986 PWs)   bands (ev):

   -15.2325 -15.2270 -15.1246 -15.0925 -15.0806 -15.0696 -15.0326 -15.0307
   -15.0283 -15.0262  -1.1110   0.6960   4.6234   6.5212

          k = 0.1243 0.3729 0.0000 (   984 PWs)   bands (ev):

   -15.2327 -15.2235 -15.1428 -15.1029 -15.0704 -15.0633 -15.0313 -15.0299
   -15.0269 -15.0212  -1.7835   0.8413   5.9071   8.7360

          k =-0.6216-0.3729-1.5713 (   984 PWs)   bands (ev):

   -15.2327 -15.2235 -15.1428 -15.1029 -15.0704 -15.0633 -15.0313 -15.0299
   -15.0269 -15.0212  -1.7835   0.8413   5.9071   8.7360

          k =-0.4973-0.2486 0.0000 (   990 PWs)   bands (ev):

   -15.2288 -15.2288 -15.1069 -15.1069 -15.0823 -15.0823 -15.0297 -15.0297
   -15.0250 -15.0250  -0.6190  -0.6190   6.9906   6.9906

          k =-1.2431-0.9945-1.5713 (   982 PWs)   bands (ev):

   -15.2324 -15.2222 -15.1498 -15.1070 -15.0685 -15.0613 -15.0302 -15.0288
   -15.0268 -15.0179  -2.0166   0.7810   7.9982   8.5912

          k =-0.0000-0.0000 1.0475 (   965 PWs)   bands (ev):

   -15.1382 -15.1140 -15.1140 -15.0903 -15.0885 -15.0872 -15.0872 -15.0571
   -15.0240 -15.0149   2.2871   2.5697   6.4779   6.4779

          k =-0.7459-0.7459-0.5238 (   981 PWs)   bands (ev):

   -15.1668 -15.1158 -15.1158 -15.1119 -15.0863 -15.0863 -15.0668 -15.0409
   -15.0207 -15.0073  -0.6599   5.7466   8.9382   8.9382

          k =-0.7459-0.1243-0.2619 (   967 PWs)   bands (ev):

   -15.1808 -15.1704 -15.1048 -15.0853 -15.0797 -15.0699 -15.0609 -15.0565
   -15.0483 -15.0452   0.3144   0.8925   4.8677   5.4612

          k =-1.4918-0.8702-1.8332 (   986 PWs)   bands (ev):

   -15.1816 -15.1760 -15.1494 -15.1229 -15.0629 -15.0604 -15.0509 -15.0482
   -15.0420 -15.0113  -2.2938   3.5830   7.1414   8.2253

          k =-0.0000 0.4973-0.0000 (   986 PWs)   bands (ev):

   -15.2325 -15.2270 -15.1246 -15.0925 -15.0806 -15.0696 -15.0326 -15.0307
   -15.0283 -15.0262  -1.1110   0.6960   4.6234   6.5212

          k =-0.7459-0.2486-1.5713 (   986 PWs)   bands (ev):

   -15.2346 -15.2192 -15.1689 -15.1191 -15.0508 -15.0465 -15.0327 -15.0309
   -15.0286 -15.0157  -2.5097   2.1172   5.8859   9.3622

          k =-0.6216-0.1243-0.0000 (   976 PWs)   bands (ev):

   -15.2305 -15.2305 -15.1012 -15.1012 -15.0801 -15.0801 -15.0311 -15.0311
   -15.0289 -15.0289  -0.1308  -0.1308   4.9929   4.9929

          k =-1.3674-0.8702-1.5713 (   976 PWs)   bands (ev):

   -15.2348 -15.2173 -15.1786 -15.1251 -15.0460 -15.0409 -15.0322 -15.0303
   -15.0301 -15.0116  -2.7551   2.5340   7.1643   7.5024

          k =-0.7459-0.7459-1.5713 (   976 PWs)   bands (ev):

   -15.2312 -15.2312 -15.0983 -15.0983 -15.0791 -15.0791 -15.0327 -15.0327
   -15.0306 -15.0306   0.2035   0.2035   4.1495   4.1495

          k =-1.4918-1.4918-3.1426 (   969 PWs)   bands (ev):

   -15.2355 -15.2156 -15.1883 -15.1322 -15.0399 -15.0329 -15.0329 -15.0316
   -15.0316 -15.0069  -3.0033   3.5464   6.8838   6.8838

     highest occupied level (ev):     9.6039

     Writing output data file germanium.save/

     BETA-TIN PHONONS                                                           

     bravais-lattice index     =            0
     lattice parameter (alat)  =       7.8793  a.u.
     unit-cell volume          =     279.7989 (a.u.)^3
     number of atoms/cell      =            2
     number of atomic types    =            1
     kinetic-energy cut-off    =      35.0000  Ry
     charge density cut-off    =     140.0000  Ry
     convergence threshold     =      5.0E-14
     beta                      =       0.7000
     number of iterations used =            4
     Exchange-correlation      = PBE ( 1  4  3  4 0 0)


     celldm(1)=   10.56382  celldm(2)=    1.00000  celldm(3)=    0.47469
     celldm(4)=    0.00000  celldm(5)=    0.00000  celldm(6)=    0.00000

     crystal axes: (cart. coord. in units of alat)
               a(1) = ( -0.6704  0.6704  0.3182 )  
               a(2) = (  0.6704 -0.6704  0.3182 )  
               a(3) = (  0.6704  0.6704 -0.3182 )  

     reciprocal axes: (cart. coord. in units 2 pi/alat)
               b(1) = (  0.0000  0.7459  1.5713 )  
               b(2) = (  0.7459  0.0000  1.5713 )  
               b(3) = (  0.7459  0.7459  0.0000 )  


     Atoms inside the unit cell: 

     Cartesian axes

     site n.  atom      mass           positions (alat units)
        1     Ge  72.6400   tau(    1) = (   -0.00000    1.00553    0.07955  )
        2     Ge  72.6400   tau(    2) = (    0.67035   -0.33518    0.23866  )

     Computing dynamical matrix for 
                    q = (  -0.7458776  -0.7458776  -1.5712828 )
 
     17 Sym.Ops. (with q -> -q+G )


     G cutoff =  220.1635  (    651 G-vectors)     FFT grid: ( 30, 30, 30)
     number of k points=    60

     PseudoPot. # 1 for Ge read from file:
     ../PP/Ge.pbe-dn-kjpaw_psl.0.2.2.UPF
     MD5 check sum: acf6dd3aa1b4e03129ff8bf786ac0282
     Pseudo is Projector augmented-wave + core cor, Zval = 14.0
     Generated using "atomic" code by A. Dal Corso v.5.0.2 svn rev. 9415
     Shape of augmentation charge: PSQ
     Using radial grid of 1207 points,  6 beta functions with: 
                l(1) =   0
                l(2) =   0
                l(3) =   1
                l(4) =   1
                l(5) =   2
                l(6) =   2
     Q(r) pseudized with 0 coefficients 



     Atomic displacements:
     There are   3 irreducible representations

     Representation     1      2 modes -  To be done

     Representation     2      2 modes -  To be done

     Representation     3      2 modes -  To be done



     Alpha used in Ewald sum =   1.3000
     PHONON       :     1h 9m CPU        9h 1m WALL

      12h


     Representation #  1 modes #   1  2

     Self-consistent Calculation

      iter #   1 total cpu time :  4379.3 secs   av.it.:   7.5
      thresh= 1.000E-02 alpha_mix =  0.700 |ddv_scf|^2 =  2.574E-04

      iter #   2 total cpu time :  4380.6 secs   av.it.:   9.6
      thresh= 1.604E-03 alpha_mix =  0.700 |ddv_scf|^2 =  4.647E-04

      iter #   3 total cpu time :  4381.9 secs   av.it.:   8.6
      thresh= 2.156E-03 alpha_mix =  0.700 |ddv_scf|^2 =  2.631E-07

      iter #   4 total cpu time :  4383.1 secs   av.it.:   9.3
      thresh= 5.129E-05 alpha_mix =  0.700 |ddv_scf|^2 =  2.155E-09

      iter #   5 total cpu time :  4384.4 secs   av.it.:   9.3
      thresh= 4.642E-06 alpha_mix =  0.700 |ddv_scf|^2 =  4.563E-11

      iter #   6 total cpu time :  4385.6 secs   av.it.:   9.1
      thresh= 6.755E-07 alpha_mix =  0.700 |ddv_scf|^2 =  5.462E-13

      iter #   7 total cpu time :  4387.1 secs   av.it.:   9.5
      thresh= 7.390E-08 alpha_mix =  0.700 |ddv_scf|^2 =  1.539E-15

     End of self-consistent calculation

     Convergence has been achieved 


     Representation #  2 modes #   3  4

     Self-consistent Calculation

      iter #   1 total cpu time :  4388.2 secs   av.it.:   6.8
      thresh= 1.000E-02 alpha_mix =  0.700 |ddv_scf|^2 =  1.003E-05

      iter #   2 total cpu time :  4389.5 secs   av.it.:   9.7
      thresh= 3.167E-04 alpha_mix =  0.700 |ddv_scf|^2 =  1.143E-07

      iter #   3 total cpu time :  4390.8 secs   av.it.:  10.1
      thresh= 3.381E-05 alpha_mix =  0.700 |ddv_scf|^2 =  7.041E-09

      iter #   4 total cpu time :  4392.2 secs   av.it.:  10.1
      thresh= 8.391E-06 alpha_mix =  0.700 |ddv_scf|^2 =  3.441E-11

      iter #   5 total cpu time :  4393.6 secs   av.it.:  10.1
      thresh= 5.866E-07 alpha_mix =  0.700 |ddv_scf|^2 =  1.030E-13

      iter #   6 total cpu time :  4395.2 secs   av.it.:  10.1
      thresh= 3.210E-08 alpha_mix =  0.700 |ddv_scf|^2 =  2.413E-15

     End of self-consistent calculation

     Convergence has been achieved 


     Representation #  3 modes #   5  6

     Self-consistent Calculation

      iter #   1 total cpu time :  4396.2 secs   av.it.:   6.4
      thresh= 1.000E-02 alpha_mix =  0.700 |ddv_scf|^2 =  8.898E-06

      iter #   2 total cpu time :  4397.6 secs   av.it.:   9.5
      thresh= 2.983E-04 alpha_mix =  0.700 |ddv_scf|^2 =  7.064E-06

      iter #   3 total cpu time :  4398.8 secs   av.it.:   8.8
      thresh= 2.658E-04 alpha_mix =  0.700 |ddv_scf|^2 =  3.485E-06

      iter #   4 total cpu time :  4400.1 secs   av.it.:   8.8
      thresh= 1.867E-04 alpha_mix =  0.700 |ddv_scf|^2 =  6.797E-09

      iter #   5 total cpu time :  4401.4 secs   av.it.:  10.2
      thresh= 8.245E-06 alpha_mix =  0.700 |ddv_scf|^2 =  1.833E-10

      iter #   6 total cpu time :  4402.7 secs   av.it.:  10.4
      thresh= 1.354E-06 alpha_mix =  0.700 |ddv_scf|^2 =  1.800E-11

      iter #   7 total cpu time :  4404.1 secs   av.it.:  10.1
      thresh= 4.243E-07 alpha_mix =  0.700 |ddv_scf|^2 =  2.126E-13

      iter #   8 total cpu time :  4405.4 secs   av.it.:  10.0
      thresh= 4.611E-08 alpha_mix =  0.700 |ddv_scf|^2 =  2.695E-15

     End of self-consistent calculation

     Convergence has been achieved 
 
     Number of q in the star =    1
     List of q in the star:
          1  -0.745877648  -0.745877648  -1.571282826

     Diagonalizing the dynamical matrix

     q = (   -0.745877648  -0.745877648  -1.571282826 ) 

 **************************************************************************
     freq (    1) =      -1.874097 [THz] =     -62.513152 [cm-1]
     freq (    2) =      -1.874097 [THz] =     -62.513152 [cm-1]
     freq (    3) =       1.910208 [THz] =      63.717670 [cm-1]
     freq (    4) =       1.910208 [THz] =      63.717670 [cm-1]
     freq (    5) =       2.667435 [THz] =      88.976060 [cm-1]
     freq (    6) =       2.667435 [THz] =      88.976060 [cm-1]
 **************************************************************************
 
     init_run     :      1.98s CPU      2.09s WALL (      29 calls)
     electrons    :    232.81s CPU    238.57s WALL (      29 calls)

     Called by init_run:
     wfcinit      :      0.00s CPU      0.00s WALL (      29 calls)
     potinit      :      1.14s CPU      1.22s WALL (      29 calls)
     hinit0       :      0.68s CPU      0.69s WALL (      29 calls)

     Called by electrons:
     c_bands      :    232.81s CPU    238.56s WALL (      29 calls)
     v_of_rho     :      0.03s CPU      0.03s WALL (      30 calls)
     newd         :      0.06s CPU      0.06s WALL (      30 calls)
     PAW_pot      :      1.14s CPU      1.23s WALL (      30 calls)

     Called by c_bands:
     init_us_2    :      4.95s CPU      5.38s WALL (  268888 calls)
     cegterg      :    214.98s CPU    220.01s WALL (    6690 calls)

     Called by sum_band:

     Called by *egterg:
     h_psi        :   2498.53s CPU   2601.53s WALL ( 3871370 calls)
     s_psi        :    195.54s CPU    204.45s WALL ( 7883574 calls)
     g_psi        :      0.18s CPU      0.21s WALL (   85576 calls)
     cdiaghg      :    128.51s CPU    131.68s WALL (   92266 calls)

     Called by h_psi:
     h_psi:pot    :   2492.26s CPU   2595.14s WALL ( 3871370 calls)
     h_psi:calbec :    207.62s CPU    214.97s WALL ( 3871370 calls)
     vloc_psi     :   2178.28s CPU   2270.70s WALL ( 3871370 calls)
     add_vuspsi   :     97.57s CPU    100.64s WALL ( 3871370 calls)

     General routines
     calbec       :    447.36s CPU    464.99s WALL ( 8280384 calls)
     fft          :      2.03s CPU      2.04s WALL (   30846 calls)
     ffts         :      1.15s CPU      1.10s WALL (   21564 calls)
     fftw         :   2525.63s CPU   2638.53s WALL (79231738 calls)
     davcio       :     12.60s CPU     19.66s WALL ( 1226467 calls)
 
     Parallel routines
     fft_scatt_xy :    177.20s CPU    184.86s WALL (79284148 calls)
     fft_scatt_yz :   1573.54s CPU   1644.07s WALL (79284148 calls)
 
     PHONON       :     1h10m CPU       10h 1m WALL

      13h
     INITIALIZATION: 
     phq_setup    :      0.31s CPU      0.33s WALL (      30 calls)
     phq_init     :     30.67s CPU     31.48s WALL (      30 calls)
 
     phq_init     :     30.67s CPU     31.48s WALL (      30 calls)
     set_drhoc    :      0.46s CPU      0.47s WALL (      90 calls)
     init_vloc    :      0.04s CPU      0.04s WALL (      30 calls)
     init_us_1    :      0.52s CPU      0.56s WALL (      30 calls)
     newd         :      0.06s CPU      0.06s WALL (      30 calls)
     dvanqq       :      0.70s CPU      0.71s WALL (      30 calls)
     drho         :     23.16s CPU     23.80s WALL (      30 calls)
 
     DYNAMICAL MATRIX:
     dynmat0      :      4.75s CPU      4.84s WALL (      30 calls)
     phqscf       :   3932.90s CPU   4113.99s WALL (      30 calls)
     dynmatrix    :      0.02s CPU      0.04s WALL (      30 calls)
 
     phqscf       :   3932.90s CPU   4113.99s WALL (      30 calls)
     solve_linter :   3923.78s CPU   4104.13s WALL (     159 calls)
     drhodv       :      8.10s CPU      8.57s WALL (     159 calls)
 
     dynmat0      :      4.75s CPU      4.84s WALL (      30 calls)
     dynmat_us    :      4.41s CPU      4.48s WALL (      30 calls)
     d2ionq       :      0.02s CPU      0.01s WALL (      30 calls)
     dynmatcc     :      0.28s CPU      0.31s WALL (      30 calls)
 
     dynmat_us    :      4.41s CPU      4.48s WALL (      30 calls)
     addusdynmat  :      0.00s CPU      0.00s WALL (      30 calls)
 
     phqscf       :   3932.90s CPU   4113.99s WALL (      30 calls)
     solve_linter :   3923.78s CPU   4104.13s WALL (     159 calls)
 
     solve_linter :   3923.78s CPU   4104.13s WALL (     159 calls)
     dvqpsi_us    :     31.03s CPU     32.49s WALL (   20430 calls)
     ortho        :     43.73s CPU     45.98s WALL (  239700 calls)
     cgsolve      :   3120.88s CPU   3250.34s WALL (  239700 calls)
     incdrhoscf   :    269.12s CPU    283.67s WALL (  239700 calls)
     addusddens   :      4.85s CPU      4.97s WALL (    1898 calls)
     vpsifft      :    205.67s CPU    216.44s WALL (  218820 calls)
     dv_of_drho   :      1.14s CPU      1.21s WALL (    1932 calls)
     mix_pot      :      0.96s CPU      1.42s WALL (    1745 calls)
     psymdvscf    :      5.59s CPU      5.77s WALL (    1298 calls)
     newdq        :      4.66s CPU      4.73s WALL (    1745 calls)
     adddvscf     :     12.02s CPU     12.22s WALL (  219270 calls)
     drhodvus     :      0.03s CPU      0.05s WALL (     159 calls)
 
     dvqpsi_us    :     31.03s CPU     32.49s WALL (   20430 calls)
     dvqpsi_us_on :     10.43s CPU     10.92s WALL (   20430 calls)
 
     cgsolve      :   3120.88s CPU   3250.34s WALL (  239700 calls)
     ch_psi       :   3002.36s CPU   3127.08s WALL ( 3772414 calls)
 
     ch_psi       :   3002.36s CPU   3127.08s WALL ( 3772414 calls)
     h_psi        :   2498.53s CPU   2601.53s WALL ( 3871370 calls)
     last         :    459.37s CPU    477.57s WALL ( 3772414 calls)
 
     h_psi        :   2498.53s CPU   2601.53s WALL ( 3871370 calls)
     add_vuspsi   :     97.57s CPU    100.64s WALL ( 3871370 calls)
 
     incdrhoscf   :    269.12s CPU    283.67s WALL (  239700 calls)
     addusdbec    :     21.62s CPU     22.80s WALL (  259950 calls)
 
     drhodvus     :      0.03s CPU      0.05s WALL (     159 calls)
 
      General routines
     calbec       :    447.36s CPU    464.99s WALL ( 8280384 calls)
     fft          :      2.03s CPU      2.04s WALL (   30846 calls)
     ffts         :      1.15s CPU      1.10s WALL (   21564 calls)
     fftw         :   2525.63s CPU   2638.53s WALL (79231738 calls)
     davcio       :     12.60s CPU     19.66s WALL ( 1226467 calls)
     write_rec    :      1.51s CPU      8.23s WALL (    1904 calls)
 
 
     PHONON       :     1h10m CPU       10h 1m WALL

      13h
 
   This run was terminated on:  12:56: 1  12May2022            

=------------------------------------------------------------------------------=
   JOB DONE.
=------------------------------------------------------------------------------=
