
     Program PWSCF v.6.3MaX starts on 10May2022 at 15:54:37 

     This program is part of the open-source Quantum ESPRESSO suite
     for quantum simulation of materials; please cite
         "P. Giannozzi et al., J. Phys.:Condens. Matter 21 395502 (2009);
         "P. Giannozzi et al., J. Phys.:Condens. Matter 29 465901 (2017);
          URL http://www.quantum-espresso.org", 
     in publications or presentations arising from this work. More details at
     http://www.quantum-espresso.org/quote

     Parallel version (MPI), running on     1 processors

     MPI processes distributed on     1 nodes
     Waiting for input...
     Reading input from standard input

     Current dimensions of program PWSCF are:
     Max number of different atomic species (ntypx) = 10
     Max number of k-points (npk) =  40000
     Max angular momentum in pseudopotentials (lmaxx) =  3
               file Ge.pbe-dn-kjpaw_psl.0.2.2.UPF: wavefunction(s)  4P 3D renormalized

     Subspace diagonalization in iterative solution of the eigenvalue problem:
     a serial algorithm will be used

 
     G-vector sticks info
     --------------------
     sticks:   dense  smooth     PW     G-vecs:    dense   smooth      PW
     Sum         253     253     85                 2733     2733     537
 


     bravais-lattice index     =            2
     lattice parameter (alat)  =      10.2000  a.u.
     unit-cell volume          =     265.3020 (a.u.)^3
     number of atoms/cell      =            2
     number of atomic types    =            1
     number of electrons       =        28.00
     number of Kohn-Sham states=           14
     kinetic-energy cutoff     =      18.1580  Ry
     charge density cutoff     =      72.6320  Ry
     convergence threshold     =      1.0E-08
     mixing beta               =       0.7000
     number of iterations used =            8  plain     mixing
     Exchange-correlation      = SLA PW PBX PBC ( 1  4  3  4 0 0)

     celldm(1)=  10.200000  celldm(2)=   0.000000  celldm(3)=   0.000000
     celldm(4)=   0.000000  celldm(5)=   0.000000  celldm(6)=   0.000000

     crystal axes: (cart. coord. in units of alat)
               a(1) = (  -0.500000   0.000000   0.500000 )  
               a(2) = (   0.000000   0.500000   0.500000 )  
               a(3) = (  -0.500000   0.500000   0.000000 )  

     reciprocal axes: (cart. coord. in units 2 pi/alat)
               b(1) = ( -1.000000 -1.000000  1.000000 )  
               b(2) = (  1.000000  1.000000  1.000000 )  
               b(3) = ( -1.000000  1.000000 -1.000000 )  


     PseudoPot. # 1 for Ge read from file:
     ../../PP/Ge.pbe-dn-kjpaw_psl.0.2.2.UPF
     MD5 check sum: acf6dd3aa1b4e03129ff8bf786ac0282
     Pseudo is Projector augmented-wave + core cor, Zval = 14.0
     Generated using "atomic" code by A. Dal Corso v.5.0.2 svn rev. 9415
     Shape of augmentation charge: PSQ
     Using radial grid of 1207 points,  6 beta functions with: 
                l(1) =   0
                l(2) =   0
                l(3) =   1
                l(4) =   1
                l(5) =   2
                l(6) =   2
     Q(r) pseudized with 0 coefficients 


     atomic species   valence    mass     pseudopotential
        Ge            14.00    28.08600     Ge( 1.00)

     48 Sym. Ops., with inversion, found (24 have fractional translation)



   Cartesian axes

     site n.     atom                  positions (alat units)
         1           Ge  tau(   1) = (   0.0000000   0.0000000   0.0000000  )
         2           Ge  tau(   2) = (  -0.2500000   0.2500000   0.2500000  )

     number of k points=    16
                       cart. coord. in units 2pi/alat
        k(    1) = (   0.0000000   0.0000000   0.0000000), wk =   0.0092593
        k(    2) = (  -0.1666667   0.1666667  -0.1666667), wk =   0.0740741
        k(    3) = (  -0.3333333   0.3333333  -0.3333333), wk =   0.0740741
        k(    4) = (   0.5000000  -0.5000000   0.5000000), wk =   0.0370370
        k(    5) = (   0.0000000   0.3333333   0.0000000), wk =   0.0555556
        k(    6) = (  -0.1666667   0.5000000  -0.1666667), wk =   0.2222222
        k(    7) = (   0.6666667  -0.3333333   0.6666667), wk =   0.2222222
        k(    8) = (   0.5000000  -0.1666667   0.5000000), wk =   0.2222222
        k(    9) = (   0.3333333   0.0000000   0.3333333), wk =   0.1111111
        k(   10) = (   0.0000000   0.6666667   0.0000000), wk =   0.0555556
        k(   11) = (   0.8333333  -0.1666667   0.8333333), wk =   0.2222222
        k(   12) = (   0.6666667  -0.0000000   0.6666667), wk =   0.1111111
        k(   13) = (   0.0000000  -1.0000000   0.0000000), wk =   0.0277778
        k(   14) = (   0.6666667  -0.3333333   1.0000000), wk =   0.2222222
        k(   15) = (   0.5000000  -0.1666667   0.8333333), wk =   0.2222222
        k(   16) = (  -0.3333333  -1.0000000   0.0000000), wk =   0.1111111

     Dense  grid:     2733 G-vectors     FFT dimensions: (  20,  20,  20)

     Estimated max dynamical RAM per process >      12.63 MB

     Check: negative/imaginary core charge=   -0.002093    0.000000

     Initial potential from superposition of free atoms

     starting charge   27.99847, renormalised to   28.00000
     Starting wfcs are   18 randomized atomic wfcs
     Checking if some PAW data can be deallocated... 

     total cpu time spent up to now is        1.0 secs

     Self-consistent Calculation

     iteration #  1     ecut=    18.16 Ry     beta= 0.70
     Davidson diagonalization with overlap
     ethr =  1.00E-02,  avg # of iterations =  2.0

     total cpu time spent up to now is        1.4 secs

     total energy              =    -627.07390327 Ry
     Harris-Foulkes estimate   =    -627.58124753 Ry
     estimated scf accuracy    <       0.61486267 Ry

     iteration #  2     ecut=    18.16 Ry     beta= 0.70
     Davidson diagonalization with overlap
     ethr =  2.20E-03,  avg # of iterations =  2.0

     total cpu time spent up to now is        1.7 secs

     total energy              =    -627.25662955 Ry
     Harris-Foulkes estimate   =    -627.28716354 Ry
     estimated scf accuracy    <       0.04048645 Ry

     iteration #  3     ecut=    18.16 Ry     beta= 0.70
     Davidson diagonalization with overlap
     ethr =  1.45E-04,  avg # of iterations =  2.0

     total cpu time spent up to now is        2.1 secs

     total energy              =    -627.26650208 Ry
     Harris-Foulkes estimate   =    -627.26631525 Ry
     estimated scf accuracy    <       0.00023093 Ry

     iteration #  4     ecut=    18.16 Ry     beta= 0.70
     Davidson diagonalization with overlap
     ethr =  8.25E-07,  avg # of iterations =  3.1

     total cpu time spent up to now is        2.4 secs

     total energy              =    -627.26656714 Ry
     Harris-Foulkes estimate   =    -627.26654486 Ry
     estimated scf accuracy    <       0.00001222 Ry

     iteration #  5     ecut=    18.16 Ry     beta= 0.70
     Davidson diagonalization with overlap
     ethr =  4.36E-08,  avg # of iterations =  2.1

     total cpu time spent up to now is        2.8 secs

     total energy              =    -627.26656852 Ry
     Harris-Foulkes estimate   =    -627.26656869 Ry
     estimated scf accuracy    <       0.00000019 Ry

     iteration #  6     ecut=    18.16 Ry     beta= 0.70
     Davidson diagonalization with overlap
     ethr =  6.83E-10,  avg # of iterations =  3.1

     total cpu time spent up to now is        3.2 secs

     total energy              =    -627.26656859 Ry
     Harris-Foulkes estimate   =    -627.26656865 Ry
     estimated scf accuracy    <       0.00000004 Ry

     iteration #  7     ecut=    18.16 Ry     beta= 0.70
     Davidson diagonalization with overlap
     ethr =  1.43E-10,  avg # of iterations =  2.0

     total cpu time spent up to now is        3.5 secs

     End of self-consistent calculation

          k = 0.0000 0.0000 0.0000 (   331 PWs)   bands (ev):

   -16.9951 -16.9951 -16.9951 -16.6357 -16.6357 -16.4384 -16.4384 -15.6047
   -15.6047 -15.6047  -3.5020  10.4212  10.4212  10.4212

          k =-0.1667 0.1667-0.1667 (   338 PWs)   bands (ev):

   -17.2339 -17.0623 -17.0623 -16.6575 -16.6575 -16.4238 -16.4215 -16.4215
   -16.2175 -16.2175  -3.1227   7.1343   9.8304   9.8304

          k =-0.3333 0.3333-0.3333 (   344 PWs)   bands (ev):

   -17.4075 -17.4075 -17.2044 -17.2044 -17.0697 -16.7059 -16.7059 -16.4253
   -16.4253 -15.5711  -2.0593   3.8188   9.1235   9.1235

          k = 0.5000-0.5000 0.5000 (   344 PWs)   bands (ev):

   -17.3471 -17.2417 -17.2417 -17.2095 -16.9928 -16.9928 -16.8101 -16.8101
   -15.6584 -15.6584  -1.0874   2.0681   8.8665   8.8665

          k = 0.0000 0.3333 0.0000 (   343 PWs)   bands (ev):

   -17.1803 -17.1803 -17.0983 -16.9900 -16.8280 -16.7307 -16.7307 -16.6665
   -16.4601 -16.3006  -2.9932   7.2816   8.9421   8.9421

          k =-0.1667 0.5000-0.1667 (   343 PWs)   bands (ev):

   -17.6129 -17.3554 -17.2372 -17.0942 -16.8549 -16.7771 -16.6085 -16.2844
   -16.1167 -15.7188  -2.1356   4.6954   7.8198   8.2652

          k = 0.6667-0.3333 0.6667 (   355 PWs)   bands (ev):

   -17.8790 -17.6025 -17.5737 -17.3678 -17.3629 -17.3196 -17.1942 -16.7884
   -16.3841 -16.0886  -0.9056   2.3842   6.8864   8.2063

          k = 0.5000-0.1667 0.5000 (   347 PWs)   bands (ev):

   -17.6252 -17.4299 -17.3488 -17.1741 -17.0641 -16.8197 -16.8139 -16.3439
   -16.2773 -16.0714  -1.2982   3.0159   6.6221   8.7674

          k = 0.3333 0.0000 0.3333 (   341 PWs)   bands (ev):

   -17.4266 -17.2051 -17.1820 -16.9585 -16.9573 -16.8942 -16.7718 -16.1379
   -15.7573 -15.7263  -2.5040   5.4915   7.4479   9.6611

          k = 0.0000 0.6667 0.0000 (   343 PWs)   bands (ev):

   -17.7878 -17.7878 -17.4714 -16.9001 -16.7463 -16.5880 -16.1504 -16.1180
   -16.1180 -15.6622  -1.4938   3.9212   7.4717   7.4717

          k = 0.8333-0.1667 0.8333 (   346 PWs)   bands (ev):

   -17.7623 -17.7497 -17.2404 -17.1351 -16.8276 -16.6508 -16.6357 -16.2738
   -16.2379 -15.8999  -0.2697   2.2364   6.0830   7.3008

          k = 0.6667-0.0000 0.6667 (   353 PWs)   bands (ev):

   -18.0164 -17.8083 -17.4265 -17.3279 -17.1802 -16.9952 -16.9924 -16.4684
   -16.2968 -16.2472  -0.0903   2.0450   5.2243   7.8148

          k = 0.0000-1.0000 0.0000 (   342 PWs)   bands (ev):

   -17.8627 -17.8627 -16.8703 -16.8703 -16.5406 -16.5406 -16.3077 -16.3077
   -15.9345 -15.9345   0.8906   0.8906   6.9500   6.9500

          k = 0.6667-0.3333 1.0000 (   343 PWs)   bands (ev):

   -17.6095 -17.3482 -17.1435 -17.0366 -16.7995 -16.7938 -16.5421 -16.3573
   -16.1081 -15.7566  -1.0954   3.2620   6.1328   7.6072

          k = 0.5000-0.1667 0.8333 (   354 PWs)   bands (ev):

   -17.7846 -17.6286 -17.5048 -17.4649 -17.2840 -17.1785 -16.8632 -16.8243
   -16.6100 -15.9738  -0.0822   1.9919   5.6175   7.0851

          k =-0.3333-1.0000 0.0000 (   352 PWs)   bands (ev):

   -17.8446 -17.8446 -17.2088 -17.2088 -16.9559 -16.9559 -16.7780 -16.7780
   -16.4422 -16.4422   0.9932   0.9932   6.0839   6.0839

     highest occupied level (ev):    10.4212

!    total energy              =    -627.26656859 Ry
     Harris-Foulkes estimate   =    -627.26656860 Ry
     estimated scf accuracy    <          3.4E-10 Ry

     total all-electron energy =     -8392.179830 Ry

     The total energy is the sum of the following terms:

     one-electron contribution =    -259.42517977 Ry
     hartree contribution      =     149.60529410 Ry
     xc contribution           =    -112.32364277 Ry
     ewald contribution        =    -207.02204249 Ry
     one-center paw contrib.   =    -198.10099767 Ry

     convergence has been achieved in   7 iterations

     Forces acting on atoms (cartesian axes, Ry/au):

     atom    1 type  1   force =     0.00000000    0.00000000    0.00000000
     atom    2 type  1   force =     0.00000000    0.00000000    0.00000000

     Total force =     0.000000     Total SCF correction =     0.000000


     Computing stress (Cartesian axis) and pressure

          total   stress  (Ry/bohr**3)                   (kbar)     P=-9065.04
  -0.06162287  -0.00000000  -0.00000000      -9065.04     -0.00     -0.00
  -0.00000000  -0.06162287  -0.00000000         -0.00  -9065.04     -0.00
  -0.00000000   0.00000000  -0.06162287         -0.00      0.00  -9065.04


     Writing output data file germanium.save/
 
     init_run     :      0.37s CPU      0.39s WALL (       1 calls)
     electrons    :      2.49s CPU      2.50s WALL (       1 calls)
     forces       :      0.02s CPU      0.02s WALL (       1 calls)
     stress       :      0.04s CPU      0.04s WALL (       1 calls)

     Called by init_run:
     wfcinit      :      0.06s CPU      0.06s WALL (       1 calls)
     potinit      :      0.17s CPU      0.17s WALL (       1 calls)
     hinit0       :      0.14s CPU      0.14s WALL (       1 calls)

     Called by electrons:
     c_bands      :      1.10s CPU      1.11s WALL (       7 calls)
     sum_band     :      0.19s CPU      0.18s WALL (       7 calls)
     v_of_rho     :      0.02s CPU      0.02s WALL (       8 calls)
     newd         :      0.01s CPU      0.02s WALL (       8 calls)
     PAW_pot      :      1.32s CPU      1.34s WALL (       8 calls)
     mix_rho      :      0.00s CPU      0.00s WALL (       7 calls)

     Called by c_bands:
     init_us_2    :      0.05s CPU      0.02s WALL (     272 calls)
     cegterg      :      1.04s CPU      1.03s WALL (     112 calls)

     Called by sum_band:
     sum_band:bec :      0.00s CPU      0.00s WALL (     112 calls)
     addusdens    :      0.02s CPU      0.03s WALL (       7 calls)

     Called by *egterg:
     h_psi        :      0.83s CPU      0.84s WALL (     390 calls)
     s_psi        :      0.06s CPU      0.04s WALL (     390 calls)
     g_psi        :      0.00s CPU      0.00s WALL (     262 calls)
     cdiaghg      :      0.10s CPU      0.09s WALL (     374 calls)

     Called by h_psi:
     h_psi:pot    :      0.82s CPU      0.84s WALL (     390 calls)
     h_psi:calbec :      0.02s CPU      0.04s WALL (     390 calls)
     vloc_psi     :      0.76s CPU      0.75s WALL (     390 calls)
     add_vuspsi   :      0.05s CPU      0.04s WALL (     390 calls)

     General routines
     calbec       :      0.07s CPU      0.07s WALL (     582 calls)
     fft          :      0.02s CPU      0.01s WALL (     114 calls)
     ffts         :      0.00s CPU      0.00s WALL (       7 calls)
     fftw         :      0.80s CPU      0.83s WALL (   10950 calls)
 
     Parallel routines
 
     PWSCF        :     3.56s CPU         3.62s WALL

 
   This run was terminated on:  15:54:41  10May2022            

=------------------------------------------------------------------------------=
   JOB DONE.
=------------------------------------------------------------------------------=
