
     Program PWSCF v.6.3MaX starts on 10May2022 at 15:56:11 

     This program is part of the open-source Quantum ESPRESSO suite
     for quantum simulation of materials; please cite
         "P. Giannozzi et al., J. Phys.:Condens. Matter 21 395502 (2009);
         "P. Giannozzi et al., J. Phys.:Condens. Matter 29 465901 (2017);
          URL http://www.quantum-espresso.org", 
     in publications or presentations arising from this work. More details at
     http://www.quantum-espresso.org/quote

     Parallel version (MPI), running on     1 processors

     MPI processes distributed on     1 nodes
     Waiting for input...
     Reading input from standard input

     Current dimensions of program PWSCF are:
     Max number of different atomic species (ntypx) = 10
     Max number of k-points (npk) =  40000
     Max angular momentum in pseudopotentials (lmaxx) =  3
               file Ge.pbe-dn-kjpaw_psl.0.2.2.UPF: wavefunction(s)  4P 3D renormalized

     Subspace diagonalization in iterative solution of the eigenvalue problem:
     a serial algorithm will be used

 
     G-vector sticks info
     --------------------
     sticks:   dense  smooth     PW     G-vecs:    dense   smooth      PW
     Sum         649     649    199                10849    10849    1893
 


     bravais-lattice index     =            2
     lattice parameter (alat)  =      10.2000  a.u.
     unit-cell volume          =     265.3020 (a.u.)^3
     number of atoms/cell      =            2
     number of atomic types    =            1
     number of electrons       =        28.00
     number of Kohn-Sham states=           14
     kinetic-energy cutoff     =      45.0000  Ry
     charge density cutoff     =     180.0000  Ry
     convergence threshold     =      1.0E-08
     mixing beta               =       0.7000
     number of iterations used =            8  plain     mixing
     Exchange-correlation      = SLA PW PBX PBC ( 1  4  3  4 0 0)

     celldm(1)=  10.200000  celldm(2)=   0.000000  celldm(3)=   0.000000
     celldm(4)=   0.000000  celldm(5)=   0.000000  celldm(6)=   0.000000

     crystal axes: (cart. coord. in units of alat)
               a(1) = (  -0.500000   0.000000   0.500000 )  
               a(2) = (   0.000000   0.500000   0.500000 )  
               a(3) = (  -0.500000   0.500000   0.000000 )  

     reciprocal axes: (cart. coord. in units 2 pi/alat)
               b(1) = ( -1.000000 -1.000000  1.000000 )  
               b(2) = (  1.000000  1.000000  1.000000 )  
               b(3) = ( -1.000000  1.000000 -1.000000 )  


     PseudoPot. # 1 for Ge read from file:
     ../../PP/Ge.pbe-dn-kjpaw_psl.0.2.2.UPF
     MD5 check sum: acf6dd3aa1b4e03129ff8bf786ac0282
     Pseudo is Projector augmented-wave + core cor, Zval = 14.0
     Generated using "atomic" code by A. Dal Corso v.5.0.2 svn rev. 9415
     Shape of augmentation charge: PSQ
     Using radial grid of 1207 points,  6 beta functions with: 
                l(1) =   0
                l(2) =   0
                l(3) =   1
                l(4) =   1
                l(5) =   2
                l(6) =   2
     Q(r) pseudized with 0 coefficients 


     atomic species   valence    mass     pseudopotential
        Ge            14.00    28.08600     Ge( 1.00)

     48 Sym. Ops., with inversion, found (24 have fractional translation)



   Cartesian axes

     site n.     atom                  positions (alat units)
         1           Ge  tau(   1) = (   0.0000000   0.0000000   0.0000000  )
         2           Ge  tau(   2) = (  -0.2500000   0.2500000   0.2500000  )

     number of k points=    16
                       cart. coord. in units 2pi/alat
        k(    1) = (   0.0000000   0.0000000   0.0000000), wk =   0.0092593
        k(    2) = (  -0.1666667   0.1666667  -0.1666667), wk =   0.0740741
        k(    3) = (  -0.3333333   0.3333333  -0.3333333), wk =   0.0740741
        k(    4) = (   0.5000000  -0.5000000   0.5000000), wk =   0.0370370
        k(    5) = (   0.0000000   0.3333333   0.0000000), wk =   0.0555556
        k(    6) = (  -0.1666667   0.5000000  -0.1666667), wk =   0.2222222
        k(    7) = (   0.6666667  -0.3333333   0.6666667), wk =   0.2222222
        k(    8) = (   0.5000000  -0.1666667   0.5000000), wk =   0.2222222
        k(    9) = (   0.3333333   0.0000000   0.3333333), wk =   0.1111111
        k(   10) = (   0.0000000   0.6666667   0.0000000), wk =   0.0555556
        k(   11) = (   0.8333333  -0.1666667   0.8333333), wk =   0.2222222
        k(   12) = (   0.6666667  -0.0000000   0.6666667), wk =   0.1111111
        k(   13) = (   0.0000000  -1.0000000   0.0000000), wk =   0.0277778
        k(   14) = (   0.6666667  -0.3333333   1.0000000), wk =   0.2222222
        k(   15) = (   0.5000000  -0.1666667   0.8333333), wk =   0.2222222
        k(   16) = (  -0.3333333  -1.0000000   0.0000000), wk =   0.1111111

     Dense  grid:    10849 G-vectors     FFT dimensions: (  32,  32,  32)

     Estimated max dynamical RAM per process >      47.43 MB

     Check: negative/imaginary core charge=   -0.000019    0.000000

     Initial potential from superposition of free atoms

     starting charge   27.99847, renormalised to   28.00000
     Starting wfcs are   18 randomized atomic wfcs
     Checking if some PAW data can be deallocated... 

     total cpu time spent up to now is        1.3 secs

     Self-consistent Calculation

     iteration #  1     ecut=    45.00 Ry     beta= 0.70
     Davidson diagonalization with overlap
     ethr =  1.00E-02,  avg # of iterations =  2.0

     Threshold (ethr) on eigenvalues was too large:
     Diagonalizing with lowered threshold

     Davidson diagonalization with overlap
     ethr =  1.51E-04,  avg # of iterations =  1.9

     total cpu time spent up to now is        2.7 secs

     total energy              =    -631.04709460 Ry
     Harris-Foulkes estimate   =    -631.05698072 Ry
     estimated scf accuracy    <       0.04284691 Ry

     iteration #  2     ecut=    45.00 Ry     beta= 0.70
     Davidson diagonalization with overlap
     ethr =  1.53E-04,  avg # of iterations =  1.2

     total cpu time spent up to now is        3.5 secs

     total energy              =    -631.04845992 Ry
     Harris-Foulkes estimate   =    -631.04858437 Ry
     estimated scf accuracy    <       0.00208611 Ry

     iteration #  3     ecut=    45.00 Ry     beta= 0.70
     Davidson diagonalization with overlap
     ethr =  7.45E-06,  avg # of iterations =  2.2

     total cpu time spent up to now is        4.3 secs

     total energy              =    -631.04865276 Ry
     Harris-Foulkes estimate   =    -631.04869672 Ry
     estimated scf accuracy    <       0.00008040 Ry

     iteration #  4     ecut=    45.00 Ry     beta= 0.70
     Davidson diagonalization with overlap
     ethr =  2.87E-07,  avg # of iterations =  2.2

     total cpu time spent up to now is        5.3 secs

     total energy              =    -631.04868766 Ry
     Harris-Foulkes estimate   =    -631.04869072 Ry
     estimated scf accuracy    <       0.00001028 Ry

     iteration #  5     ecut=    45.00 Ry     beta= 0.70
     Davidson diagonalization with overlap
     ethr =  3.67E-08,  avg # of iterations =  2.1

     total cpu time spent up to now is        6.2 secs

     total energy              =    -631.04868941 Ry
     Harris-Foulkes estimate   =    -631.04868945 Ry
     estimated scf accuracy    <       0.00000026 Ry

     iteration #  6     ecut=    45.00 Ry     beta= 0.70
     Davidson diagonalization with overlap
     ethr =  9.45E-10,  avg # of iterations =  2.7

     total cpu time spent up to now is        7.1 secs

     total energy              =    -631.04868946 Ry
     Harris-Foulkes estimate   =    -631.04868948 Ry
     estimated scf accuracy    <       0.00000003 Ry

     iteration #  7     ecut=    45.00 Ry     beta= 0.70
     Davidson diagonalization with overlap
     ethr =  9.68E-11,  avg # of iterations =  2.2

     total cpu time spent up to now is        8.0 secs

     End of self-consistent calculation

          k = 0.0000 0.0000 0.0000 (  1363 PWs)   bands (ev):

   -14.5691 -14.5691 -14.5691 -14.5223 -14.5223 -14.2211 -14.2211 -14.2211
   -14.1901 -14.1901  -3.4279  10.5152  10.5152  10.5152

          k =-0.1667 0.1667-0.1667 (  1354 PWs)   bands (ev):

   -14.5869 -14.5869 -14.5634 -14.4958 -14.4958 -14.2407 -14.2407 -14.2276
   -14.1744 -14.1744  -3.0435   7.3146   9.8878   9.8878

          k =-0.3333 0.3333-0.3333 (  1356 PWs)   bands (ev):

   -14.6005 -14.6005 -14.5516 -14.4688 -14.4688 -14.2588 -14.2588 -14.2421
   -14.1610 -14.1610  -1.9620   3.9462   9.1448   9.1448

          k = 0.5000-0.5000 0.5000 (  1350 PWs)   bands (ev):

   -14.6031 -14.6031 -14.5454 -14.4617 -14.4617 -14.2620 -14.2620 -14.2500
   -14.1574 -14.1574  -0.9620   2.1559   8.8747   8.8747

          k = 0.0000 0.3333 0.0000 (  1351 PWs)   bands (ev):

   -14.5854 -14.5823 -14.5823 -14.4985 -14.4657 -14.2924 -14.2116 -14.1983
   -14.1983 -14.1692  -2.9125   7.5427   8.9652   8.9652

          k =-0.1667 0.5000-0.1667 (  1353 PWs)   bands (ev):

   -14.6123 -14.5964 -14.5566 -14.4686 -14.4288 -14.3289 -14.2443 -14.2146
   -14.1711 -14.1497  -2.0426   4.8677   7.8976   8.2614

          k = 0.6667-0.3333 0.6667 (  1356 PWs)   bands (ev):

   -14.6275 -14.6079 -14.5232 -14.4414 -14.4291 -14.3195 -14.2768 -14.2523
   -14.1515 -14.1325  -0.7837   2.4987   6.9681   8.1968

          k = 0.5000-0.1667 0.5000 (  1355 PWs)   bands (ev):

   -14.6221 -14.6140 -14.5162 -14.4593 -14.4290 -14.2983 -14.2790 -14.2621
   -14.1433 -14.1410  -1.1874   3.1464   6.6880   8.7758

          k = 0.3333 0.0000 0.3333 (  1354 PWs)   bands (ev):

   -14.6072 -14.5987 -14.5470 -14.4830 -14.4555 -14.2811 -14.2622 -14.2158
   -14.1751 -14.1510  -2.4164   5.6779   7.4942   9.7069

          k = 0.0000 0.6667 0.0000 (  1347 PWs)   bands (ev):

   -14.6048 -14.6048 -14.5682 -14.4354 -14.4011 -14.3692 -14.2701 -14.1956
   -14.1570 -14.1570  -1.3929   4.1197   7.4429   7.4429

          k = 0.8333-0.1667 0.8333 (  1343 PWs)   bands (ev):

   -14.6305 -14.6135 -14.5193 -14.4268 -14.3970 -14.3403 -14.3106 -14.2490
   -14.1416 -14.1264  -0.1477   2.3961   6.0951   7.2650

          k = 0.6667-0.0000 0.6667 (  1360 PWs)   bands (ev):

   -14.6428 -14.6186 -14.4962 -14.3927 -14.3820 -14.3663 -14.3352 -14.2719
   -14.1359 -14.1154   0.0423   2.1947   5.2471   7.7940

          k = 0.0000-1.0000 0.0000 (  1362 PWs)   bands (ev):

   -14.6153 -14.6153 -14.5025 -14.5025 -14.3518 -14.3518 -14.2700 -14.2700
   -14.1376 -14.1376   1.0280   1.0280   6.9031   6.9031

          k = 0.6667-0.3333 1.0000 (  1348 PWs)   bands (ev):

   -14.6242 -14.6211 -14.5162 -14.4385 -14.3873 -14.3680 -14.2769 -14.2547
   -14.1372 -14.1366  -0.9858   3.4326   6.1606   7.6199

          k = 0.5000-0.1667 0.8333 (  1358 PWs)   bands (ev):

   -14.6391 -14.6246 -14.4853 -14.4130 -14.3782 -14.3691 -14.3175 -14.2796
   -14.1319 -14.1184   0.0515   2.1338   5.6539   7.0921

          k =-0.3333-1.0000 0.0000 (  1348 PWs)   bands (ev):

   -14.6323 -14.6323 -14.4573 -14.4573 -14.3580 -14.3580 -14.3058 -14.3058
   -14.1232 -14.1232   1.1380   1.1380   6.0904   6.0904

     highest occupied level (ev):    10.5152

!    total energy              =    -631.04868947 Ry
     Harris-Foulkes estimate   =    -631.04868947 Ry
     estimated scf accuracy    <          1.1E-10 Ry

     total all-electron energy =     -8395.961951 Ry

     The total energy is the sum of the following terms:

     one-electron contribution =    -269.36266574 Ry
     hartree contribution      =     156.79520080 Ry
     xc contribution           =    -113.89102665 Ry
     ewald contribution        =    -207.02204252 Ry
     one-center paw contrib.   =    -197.56815536 Ry

     convergence has been achieved in   7 iterations

     Forces acting on atoms (cartesian axes, Ry/au):

     atom    1 type  1   force =    -0.00000000   -0.00000000   -0.00000000
     atom    2 type  1   force =     0.00000000    0.00000000    0.00000000

     Total force =     0.000000     Total SCF correction =     0.000000


     Computing stress (Cartesian axis) and pressure

          total   stress  (Ry/bohr**3)                   (kbar)     P=  172.30
   0.00117125  -0.00000000  -0.00000000        172.30     -0.00     -0.00
  -0.00000000   0.00117125   0.00000000         -0.00    172.30      0.00
  -0.00000000   0.00000000   0.00117125         -0.00      0.00    172.30


     Writing output data file germanium.save/
 
     init_run     :      0.68s CPU      0.69s WALL (       1 calls)
     electrons    :      6.62s CPU      6.64s WALL (       1 calls)
     forces       :      0.07s CPU      0.07s WALL (       1 calls)
     stress       :      0.16s CPU      0.17s WALL (       1 calls)

     Called by init_run:
     wfcinit      :      0.27s CPU      0.27s WALL (       1 calls)
     potinit      :      0.18s CPU      0.18s WALL (       1 calls)
     hinit0       :      0.22s CPU      0.22s WALL (       1 calls)

     Called by electrons:
     c_bands      :      4.39s CPU      4.41s WALL (       8 calls)
     sum_band     :      0.90s CPU      0.91s WALL (       8 calls)
     v_of_rho     :      0.07s CPU      0.07s WALL (       8 calls)
     newd         :      0.10s CPU      0.10s WALL (       8 calls)
     PAW_pot      :      1.34s CPU      1.34s WALL (       8 calls)
     mix_rho      :      0.01s CPU      0.01s WALL (       8 calls)

     Called by c_bands:
     init_us_2    :      0.06s CPU      0.07s WALL (     304 calls)
     cegterg      :      4.08s CPU      4.07s WALL (     128 calls)

     Called by sum_band:
     sum_band:bec :      0.00s CPU      0.00s WALL (     128 calls)
     addusdens    :      0.10s CPU      0.12s WALL (       8 calls)

     Called by *egterg:
     h_psi        :      3.72s CPU      3.69s WALL (     409 calls)
     s_psi        :      0.13s CPU      0.16s WALL (     409 calls)
     g_psi        :      0.00s CPU      0.01s WALL (     265 calls)
     cdiaghg      :      0.11s CPU      0.08s WALL (     377 calls)

     Called by h_psi:
     h_psi:pot    :      3.70s CPU      3.68s WALL (     409 calls)
     h_psi:calbec :      0.16s CPU      0.16s WALL (     409 calls)
     vloc_psi     :      3.39s CPU      3.36s WALL (     409 calls)
     add_vuspsi   :      0.16s CPU      0.16s WALL (     409 calls)

     General routines
     calbec       :      0.27s CPU      0.25s WALL (     617 calls)
     fft          :      0.05s CPU      0.04s WALL (     115 calls)
     ffts         :      0.00s CPU      0.00s WALL (       8 calls)
     fftw         :      3.91s CPU      3.86s WALL (   11058 calls)
 
     Parallel routines
 
     PWSCF        :     8.15s CPU         8.23s WALL

 
   This run was terminated on:  15:56:20  10May2022            

=------------------------------------------------------------------------------=
   JOB DONE.
=------------------------------------------------------------------------------=
