
     Program PWSCF v.6.3MaX starts on 10May2022 at 15:55:42 

     This program is part of the open-source Quantum ESPRESSO suite
     for quantum simulation of materials; please cite
         "P. Giannozzi et al., J. Phys.:Condens. Matter 21 395502 (2009);
         "P. Giannozzi et al., J. Phys.:Condens. Matter 29 465901 (2017);
          URL http://www.quantum-espresso.org", 
     in publications or presentations arising from this work. More details at
     http://www.quantum-espresso.org/quote

     Parallel version (MPI), running on     1 processors

     MPI processes distributed on     1 nodes
     Waiting for input...
     Reading input from standard input

     Current dimensions of program PWSCF are:
     Max number of different atomic species (ntypx) = 10
     Max number of k-points (npk) =  40000
     Max angular momentum in pseudopotentials (lmaxx) =  3
               file Ge.pbe-dn-kjpaw_psl.0.2.2.UPF: wavefunction(s)  4P 3D renormalized

     Subspace diagonalization in iterative solution of the eigenvalue problem:
     a serial algorithm will be used

 
     G-vector sticks info
     --------------------
     sticks:   dense  smooth     PW     G-vecs:    dense   smooth      PW
     Sum         559     559    169                 8609     8609    1471
 


     bravais-lattice index     =            2
     lattice parameter (alat)  =      10.2000  a.u.
     unit-cell volume          =     265.3020 (a.u.)^3
     number of atoms/cell      =            2
     number of atomic types    =            1
     number of electrons       =        28.00
     number of Kohn-Sham states=           14
     kinetic-energy cutoff     =      38.6840  Ry
     charge density cutoff     =     154.7360  Ry
     convergence threshold     =      1.0E-08
     mixing beta               =       0.7000
     number of iterations used =            8  plain     mixing
     Exchange-correlation      = SLA PW PBX PBC ( 1  4  3  4 0 0)

     celldm(1)=  10.200000  celldm(2)=   0.000000  celldm(3)=   0.000000
     celldm(4)=   0.000000  celldm(5)=   0.000000  celldm(6)=   0.000000

     crystal axes: (cart. coord. in units of alat)
               a(1) = (  -0.500000   0.000000   0.500000 )  
               a(2) = (   0.000000   0.500000   0.500000 )  
               a(3) = (  -0.500000   0.500000   0.000000 )  

     reciprocal axes: (cart. coord. in units 2 pi/alat)
               b(1) = ( -1.000000 -1.000000  1.000000 )  
               b(2) = (  1.000000  1.000000  1.000000 )  
               b(3) = ( -1.000000  1.000000 -1.000000 )  


     PseudoPot. # 1 for Ge read from file:
     ../../PP/Ge.pbe-dn-kjpaw_psl.0.2.2.UPF
     MD5 check sum: acf6dd3aa1b4e03129ff8bf786ac0282
     Pseudo is Projector augmented-wave + core cor, Zval = 14.0
     Generated using "atomic" code by A. Dal Corso v.5.0.2 svn rev. 9415
     Shape of augmentation charge: PSQ
     Using radial grid of 1207 points,  6 beta functions with: 
                l(1) =   0
                l(2) =   0
                l(3) =   1
                l(4) =   1
                l(5) =   2
                l(6) =   2
     Q(r) pseudized with 0 coefficients 


     atomic species   valence    mass     pseudopotential
        Ge            14.00    28.08600     Ge( 1.00)

     24 Sym. Ops. (no inversion) found
          (note: 24 additional sym.ops. were found but ignored
           their fractional translations are incommensurate with FFT grid)


   Cartesian axes

     site n.     atom                  positions (alat units)
         1           Ge  tau(   1) = (   0.0000000   0.0000000   0.0000000  )
         2           Ge  tau(   2) = (  -0.2500000   0.2500000   0.2500000  )

     number of k points=    16
                       cart. coord. in units 2pi/alat
        k(    1) = (   0.0000000   0.0000000   0.0000000), wk =   0.0092593
        k(    2) = (  -0.1666667   0.1666667  -0.1666667), wk =   0.0740741
        k(    3) = (  -0.3333333   0.3333333  -0.3333333), wk =   0.0740741
        k(    4) = (   0.5000000  -0.5000000   0.5000000), wk =   0.0370370
        k(    5) = (   0.0000000   0.3333333   0.0000000), wk =   0.0555556
        k(    6) = (  -0.1666667   0.5000000  -0.1666667), wk =   0.2222222
        k(    7) = (   0.6666667  -0.3333333   0.6666667), wk =   0.2222222
        k(    8) = (   0.5000000  -0.1666667   0.5000000), wk =   0.2222222
        k(    9) = (   0.3333333   0.0000000   0.3333333), wk =   0.1111111
        k(   10) = (   0.0000000   0.6666667   0.0000000), wk =   0.0555556
        k(   11) = (   0.8333333  -0.1666667   0.8333333), wk =   0.2222222
        k(   12) = (   0.6666667  -0.0000000   0.6666667), wk =   0.1111111
        k(   13) = (   0.0000000  -1.0000000   0.0000000), wk =   0.0277778
        k(   14) = (   0.6666667  -0.3333333   1.0000000), wk =   0.2222222
        k(   15) = (   0.5000000  -0.1666667   0.8333333), wk =   0.2222222
        k(   16) = (  -0.3333333  -1.0000000   0.0000000), wk =   0.1111111

     Dense  grid:     8609 G-vectors     FFT dimensions: (  30,  30,  30)

     Estimated max dynamical RAM per process >      37.97 MB

     Check: negative/imaginary core charge=   -0.000080    0.000000

     Initial potential from superposition of free atoms

     starting charge   27.99847, renormalised to   28.00000
     Starting wfcs are   18 randomized atomic wfcs
     Checking if some PAW data can be deallocated... 

     total cpu time spent up to now is        1.3 secs

     Self-consistent Calculation

     iteration #  1     ecut=    38.68 Ry     beta= 0.70
     Davidson diagonalization with overlap
     ethr =  1.00E-02,  avg # of iterations =  2.0

     Threshold (ethr) on eigenvalues was too large:
     Diagonalizing with lowered threshold

     Davidson diagonalization with overlap
     ethr =  1.52E-04,  avg # of iterations =  1.9

     total cpu time spent up to now is        2.4 secs

     total energy              =    -631.04675861 Ry
     Harris-Foulkes estimate   =    -631.05645740 Ry
     estimated scf accuracy    <       0.04299965 Ry

     iteration #  2     ecut=    38.68 Ry     beta= 0.70
     Davidson diagonalization with overlap
     ethr =  1.54E-04,  avg # of iterations =  1.1

     total cpu time spent up to now is        3.0 secs

     total energy              =    -631.04808432 Ry
     Harris-Foulkes estimate   =    -631.04820234 Ry
     estimated scf accuracy    <       0.00215040 Ry

     iteration #  3     ecut=    38.68 Ry     beta= 0.70
     Davidson diagonalization with overlap
     ethr =  7.68E-06,  avg # of iterations =  2.2

     total cpu time spent up to now is        3.7 secs

     total energy              =    -631.04827970 Ry
     Harris-Foulkes estimate   =    -631.04832344 Ry
     estimated scf accuracy    <       0.00007904 Ry

     iteration #  4     ecut=    38.68 Ry     beta= 0.70
     Davidson diagonalization with overlap
     ethr =  2.82E-07,  avg # of iterations =  2.3

     total cpu time spent up to now is        4.5 secs

     total energy              =    -631.04831320 Ry
     Harris-Foulkes estimate   =    -631.04831607 Ry
     estimated scf accuracy    <       0.00000975 Ry

     iteration #  5     ecut=    38.68 Ry     beta= 0.70
     Davidson diagonalization with overlap
     ethr =  3.48E-08,  avg # of iterations =  2.0

     total cpu time spent up to now is        5.2 secs

     total energy              =    -631.04831486 Ry
     Harris-Foulkes estimate   =    -631.04831488 Ry
     estimated scf accuracy    <       0.00000025 Ry

     iteration #  6     ecut=    38.68 Ry     beta= 0.70
     Davidson diagonalization with overlap
     ethr =  8.99E-10,  avg # of iterations =  2.8

     total cpu time spent up to now is        5.9 secs

     total energy              =    -631.04831491 Ry
     Harris-Foulkes estimate   =    -631.04831492 Ry
     estimated scf accuracy    <       0.00000002 Ry

     iteration #  7     ecut=    38.68 Ry     beta= 0.70
     Davidson diagonalization with overlap
     ethr =  6.89E-11,  avg # of iterations =  2.5

     total cpu time spent up to now is        6.6 secs

     End of self-consistent calculation

          k = 0.0000 0.0000 0.0000 (  1067 PWs)   bands (ev):

   -14.5544 -14.5544 -14.5544 -14.5024 -14.5024 -14.2046 -14.2046 -14.2046
   -14.1710 -14.1710  -3.4199  10.5206  10.5206  10.5206

          k =-0.1667 0.1667-0.1667 (  1067 PWs)   bands (ev):

   -14.5715 -14.5715 -14.5484 -14.4767 -14.4767 -14.2232 -14.2232 -14.2118
   -14.1565 -14.1565  -3.0356   7.3213   9.8932   9.8932

          k =-0.3333 0.3333-0.3333 (  1089 PWs)   bands (ev):

   -14.5851 -14.5851 -14.5363 -14.4496 -14.4496 -14.2397 -14.2397 -14.2267
   -14.1443 -14.1443  -1.9548   3.9546   9.1500   9.1500

          k = 0.5000-0.5000 0.5000 (  1068 PWs)   bands (ev):

   -14.5877 -14.5877 -14.5302 -14.4427 -14.4427 -14.2420 -14.2420 -14.2343
   -14.1416 -14.1416  -0.9563   2.1661   8.8798   8.8798

          k = 0.0000 0.3333 0.0000 (  1066 PWs)   bands (ev):

   -14.5692 -14.5672 -14.5672 -14.4790 -14.4476 -14.2752 -14.1921 -14.1825
   -14.1825 -14.1508  -2.9047   7.5479   8.9712   8.9712

          k =-0.1667 0.5000-0.1667 (  1079 PWs)   bands (ev):

   -14.5968 -14.5812 -14.5407 -14.4490 -14.4106 -14.3115 -14.2249 -14.1976
   -14.1551 -14.1326  -2.0352   4.8741   7.9059   8.2674

          k = 0.6667-0.3333 0.6667 (  1079 PWs)   bands (ev):

   -14.6122 -14.5925 -14.5073 -14.4219 -14.4106 -14.3022 -14.2571 -14.2347
   -14.1353 -14.1161  -0.7777   2.5072   6.9774   8.2025

          k = 0.5000-0.1667 0.5000 (  1082 PWs)   bands (ev):

   -14.6069 -14.5984 -14.5008 -14.4401 -14.4101 -14.2789 -14.2634 -14.2425
   -14.1266 -14.1249  -1.1809   3.1542   6.6979   8.7811

          k = 0.3333 0.0000 0.3333 (  1077 PWs)   bands (ev):

   -14.5915 -14.5835 -14.5316 -14.4639 -14.4368 -14.2627 -14.2457 -14.1971
   -14.1592 -14.1334  -2.4089   5.6837   7.5040   9.7118

          k = 0.0000 0.6667 0.0000 (  1078 PWs)   bands (ev):

   -14.5897 -14.5897 -14.5517 -14.4160 -14.3840 -14.3513 -14.2504 -14.1771
   -14.1412 -14.1412  -1.3857   4.1247   7.4493   7.4493

          k = 0.8333-0.1667 0.8333 (  1074 PWs)   bands (ev):

   -14.6153 -14.5983 -14.5028 -14.4101 -14.3776 -14.3225 -14.2911 -14.2312
   -14.1256 -14.1101  -0.1414   2.4015   6.1060   7.2713

          k = 0.6667-0.0000 0.6667 (  1073 PWs)   bands (ev):

   -14.6276 -14.6030 -14.4798 -14.3748 -14.3629 -14.3494 -14.3155 -14.2535
   -14.1196 -14.0987   0.0478   2.2006   5.2602   7.8000

          k = 0.0000-1.0000 0.0000 (  1090 PWs)   bands (ev):

   -14.5999 -14.5999 -14.4857 -14.4857 -14.3320 -14.3319 -14.2520 -14.2519
   -14.1215 -14.1215   1.0340   1.0340   6.9095   6.9095

          k = 0.6667-0.3333 1.0000 (  1080 PWs)   bands (ev):

   -14.6091 -14.6057 -14.5001 -14.4193 -14.3690 -14.3507 -14.2575 -14.2374
   -14.1205 -14.1205  -0.9791   3.4380   6.1718   7.6280

          k = 0.5000-0.1667 0.8333 (  1084 PWs)   bands (ev):

   -14.6240 -14.6091 -14.4689 -14.3942 -14.3597 -14.3518 -14.2984 -14.2611
   -14.1156 -14.1020   0.0570   2.1402   5.6658   7.1012

          k =-0.3333-1.0000 0.0000 (  1080 PWs)   bands (ev):

   -14.6171 -14.6171 -14.4406 -14.4406 -14.3389 -14.3388 -14.2877 -14.2877
   -14.1068 -14.1067   1.1434   1.1435   6.1013   6.1014

     highest occupied level (ev):    10.5206

!    total energy              =    -631.04831491 Ry
     Harris-Foulkes estimate   =    -631.04831491 Ry
     estimated scf accuracy    <          3.5E-10 Ry

     total all-electron energy =     -8395.961576 Ry

     The total energy is the sum of the following terms:

     one-electron contribution =    -269.37955557 Ry
     hartree contribution      =     156.82022850 Ry
     xc contribution           =    -113.89856526 Ry
     ewald contribution        =    -207.02204252 Ry
     one-center paw contrib.   =    -197.56838005 Ry

     convergence has been achieved in   7 iterations

     Forces acting on atoms (cartesian axes, Ry/au):

     atom    1 type  1   force =    -0.00000000   -0.00000000   -0.00000000
     atom    2 type  1   force =     0.00000000    0.00000000    0.00000000

     Total force =     0.000000     Total SCF correction =     0.000000


     Computing stress (Cartesian axis) and pressure

          total   stress  (Ry/bohr**3)                   (kbar)     P=  198.09
   0.00134659   0.00000000   0.00000000        198.09      0.00      0.00
   0.00000000   0.00134659   0.00000000          0.00    198.09      0.00
   0.00000000   0.00000000   0.00134659          0.00      0.00    198.09


     Writing output data file germanium.save/
 
     init_run     :      0.58s CPU      0.61s WALL (       1 calls)
     electrons    :      5.36s CPU      5.37s WALL (       1 calls)
     forces       :      0.05s CPU      0.06s WALL (       1 calls)
     stress       :      0.13s CPU      0.13s WALL (       1 calls)

     Called by init_run:
     wfcinit      :      0.20s CPU      0.21s WALL (       1 calls)
     potinit      :      0.17s CPU      0.18s WALL (       1 calls)
     hinit0       :      0.20s CPU      0.20s WALL (       1 calls)

     Called by electrons:
     c_bands      :      3.39s CPU      3.40s WALL (       8 calls)
     sum_band     :      0.68s CPU      0.69s WALL (       8 calls)
     v_of_rho     :      0.06s CPU      0.06s WALL (       8 calls)
     newd         :      0.06s CPU      0.07s WALL (       8 calls)
     PAW_pot      :      1.33s CPU      1.34s WALL (       8 calls)
     mix_rho      :      0.00s CPU      0.00s WALL (       8 calls)

     Called by c_bands:
     init_us_2    :      0.06s CPU      0.06s WALL (     304 calls)
     cegterg      :      3.09s CPU      3.13s WALL (     128 calls)

     Called by sum_band:
     sum_band:bec :      0.00s CPU      0.00s WALL (     128 calls)
     addusdens    :      0.10s CPU      0.10s WALL (       8 calls)

     Called by *egterg:
     h_psi        :      2.71s CPU      2.78s WALL (     413 calls)
     s_psi        :      0.13s CPU      0.13s WALL (     413 calls)
     g_psi        :      0.02s CPU      0.01s WALL (     269 calls)
     cdiaghg      :      0.07s CPU      0.08s WALL (     381 calls)

     Called by h_psi:
     h_psi:pot    :      2.70s CPU      2.78s WALL (     413 calls)
     h_psi:calbec :      0.16s CPU      0.13s WALL (     413 calls)
     vloc_psi     :      2.47s CPU      2.51s WALL (     413 calls)
     add_vuspsi   :      0.07s CPU      0.13s WALL (     413 calls)

     General routines
     calbec       :      0.24s CPU      0.21s WALL (     621 calls)
     fft          :      0.02s CPU      0.03s WALL (     115 calls)
     ffts         :      0.00s CPU      0.00s WALL (       8 calls)
     fftw         :      2.81s CPU      2.87s WALL (   11104 calls)
 
     Parallel routines
 
     PWSCF        :     6.78s CPU         6.86s WALL

 
   This run was terminated on:  15:55:49  10May2022            

=------------------------------------------------------------------------------=
   JOB DONE.
=------------------------------------------------------------------------------=
