
     Program PWSCF v.6.3MaX starts on 10May2022 at 15:55:49 

     This program is part of the open-source Quantum ESPRESSO suite
     for quantum simulation of materials; please cite
         "P. Giannozzi et al., J. Phys.:Condens. Matter 21 395502 (2009);
         "P. Giannozzi et al., J. Phys.:Condens. Matter 29 465901 (2017);
          URL http://www.quantum-espresso.org", 
     in publications or presentations arising from this work. More details at
     http://www.quantum-espresso.org/quote

     Parallel version (MPI), running on     1 processors

     MPI processes distributed on     1 nodes
     Waiting for input...
     Reading input from standard input

     Current dimensions of program PWSCF are:
     Max number of different atomic species (ntypx) = 10
     Max number of k-points (npk) =  40000
     Max angular momentum in pseudopotentials (lmaxx) =  3
               file Ge.pbe-dn-kjpaw_psl.0.2.2.UPF: wavefunction(s)  4P 3D renormalized

     Subspace diagonalization in iterative solution of the eigenvalue problem:
     a serial algorithm will be used

 
     G-vector sticks info
     --------------------
     sticks:   dense  smooth     PW     G-vecs:    dense   smooth      PW
     Sum         583     583    187                 9257     9257    1639
 


     bravais-lattice index     =            2
     lattice parameter (alat)  =      10.2000  a.u.
     unit-cell volume          =     265.3020 (a.u.)^3
     number of atoms/cell      =            2
     number of atomic types    =            1
     number of electrons       =        28.00
     number of Kohn-Sham states=           14
     kinetic-energy cutoff     =      40.2630  Ry
     charge density cutoff     =     161.0520  Ry
     convergence threshold     =      1.0E-08
     mixing beta               =       0.7000
     number of iterations used =            8  plain     mixing
     Exchange-correlation      = SLA PW PBX PBC ( 1  4  3  4 0 0)

     celldm(1)=  10.200000  celldm(2)=   0.000000  celldm(3)=   0.000000
     celldm(4)=   0.000000  celldm(5)=   0.000000  celldm(6)=   0.000000

     crystal axes: (cart. coord. in units of alat)
               a(1) = (  -0.500000   0.000000   0.500000 )  
               a(2) = (   0.000000   0.500000   0.500000 )  
               a(3) = (  -0.500000   0.500000   0.000000 )  

     reciprocal axes: (cart. coord. in units 2 pi/alat)
               b(1) = ( -1.000000 -1.000000  1.000000 )  
               b(2) = (  1.000000  1.000000  1.000000 )  
               b(3) = ( -1.000000  1.000000 -1.000000 )  


     PseudoPot. # 1 for Ge read from file:
     ../../PP/Ge.pbe-dn-kjpaw_psl.0.2.2.UPF
     MD5 check sum: acf6dd3aa1b4e03129ff8bf786ac0282
     Pseudo is Projector augmented-wave + core cor, Zval = 14.0
     Generated using "atomic" code by A. Dal Corso v.5.0.2 svn rev. 9415
     Shape of augmentation charge: PSQ
     Using radial grid of 1207 points,  6 beta functions with: 
                l(1) =   0
                l(2) =   0
                l(3) =   1
                l(4) =   1
                l(5) =   2
                l(6) =   2
     Q(r) pseudized with 0 coefficients 


     atomic species   valence    mass     pseudopotential
        Ge            14.00    28.08600     Ge( 1.00)

     24 Sym. Ops. (no inversion) found
          (note: 24 additional sym.ops. were found but ignored
           their fractional translations are incommensurate with FFT grid)


   Cartesian axes

     site n.     atom                  positions (alat units)
         1           Ge  tau(   1) = (   0.0000000   0.0000000   0.0000000  )
         2           Ge  tau(   2) = (  -0.2500000   0.2500000   0.2500000  )

     number of k points=    16
                       cart. coord. in units 2pi/alat
        k(    1) = (   0.0000000   0.0000000   0.0000000), wk =   0.0092593
        k(    2) = (  -0.1666667   0.1666667  -0.1666667), wk =   0.0740741
        k(    3) = (  -0.3333333   0.3333333  -0.3333333), wk =   0.0740741
        k(    4) = (   0.5000000  -0.5000000   0.5000000), wk =   0.0370370
        k(    5) = (   0.0000000   0.3333333   0.0000000), wk =   0.0555556
        k(    6) = (  -0.1666667   0.5000000  -0.1666667), wk =   0.2222222
        k(    7) = (   0.6666667  -0.3333333   0.6666667), wk =   0.2222222
        k(    8) = (   0.5000000  -0.1666667   0.5000000), wk =   0.2222222
        k(    9) = (   0.3333333   0.0000000   0.3333333), wk =   0.1111111
        k(   10) = (   0.0000000   0.6666667   0.0000000), wk =   0.0555556
        k(   11) = (   0.8333333  -0.1666667   0.8333333), wk =   0.2222222
        k(   12) = (   0.6666667  -0.0000000   0.6666667), wk =   0.1111111
        k(   13) = (   0.0000000  -1.0000000   0.0000000), wk =   0.0277778
        k(   14) = (   0.6666667  -0.3333333   1.0000000), wk =   0.2222222
        k(   15) = (   0.5000000  -0.1666667   0.8333333), wk =   0.2222222
        k(   16) = (  -0.3333333  -1.0000000   0.0000000), wk =   0.1111111

     Dense  grid:     9257 G-vectors     FFT dimensions: (  30,  30,  30)

     Estimated max dynamical RAM per process >      40.53 MB

     Check: negative/imaginary core charge=   -0.000042    0.000000

     Initial potential from superposition of free atoms

     starting charge   27.99847, renormalised to   28.00000
     Starting wfcs are   18 randomized atomic wfcs
     Checking if some PAW data can be deallocated... 

     total cpu time spent up to now is        1.2 secs

     Self-consistent Calculation

     iteration #  1     ecut=    40.26 Ry     beta= 0.70
     Davidson diagonalization with overlap
     ethr =  1.00E-02,  avg # of iterations =  1.9

     Threshold (ethr) on eigenvalues was too large:
     Diagonalizing with lowered threshold

     Davidson diagonalization with overlap
     ethr =  1.51E-04,  avg # of iterations =  1.9

     total cpu time spent up to now is        2.4 secs

     total energy              =    -631.04544965 Ry
     Harris-Foulkes estimate   =    -631.05534610 Ry
     estimated scf accuracy    <       0.04291772 Ry

     iteration #  2     ecut=    40.26 Ry     beta= 0.70
     Davidson diagonalization with overlap
     ethr =  1.53E-04,  avg # of iterations =  1.2

     total cpu time spent up to now is        3.0 secs

     total energy              =    -631.04679601 Ry
     Harris-Foulkes estimate   =    -631.04692617 Ry
     estimated scf accuracy    <       0.00211775 Ry

     iteration #  3     ecut=    40.26 Ry     beta= 0.70
     Davidson diagonalization with overlap
     ethr =  7.56E-06,  avg # of iterations =  2.2

     total cpu time spent up to now is        3.7 secs

     total energy              =    -631.04698998 Ry
     Harris-Foulkes estimate   =    -631.04703478 Ry
     estimated scf accuracy    <       0.00008053 Ry

     iteration #  4     ecut=    40.26 Ry     beta= 0.70
     Davidson diagonalization with overlap
     ethr =  2.88E-07,  avg # of iterations =  2.2

     total cpu time spent up to now is        4.5 secs

     total energy              =    -631.04702447 Ry
     Harris-Foulkes estimate   =    -631.04702744 Ry
     estimated scf accuracy    <       0.00000993 Ry

     iteration #  5     ecut=    40.26 Ry     beta= 0.70
     Davidson diagonalization with overlap
     ethr =  3.55E-08,  avg # of iterations =  2.1

     total cpu time spent up to now is        5.3 secs

     total energy              =    -631.04702618 Ry
     Harris-Foulkes estimate   =    -631.04702620 Ry
     estimated scf accuracy    <       0.00000024 Ry

     iteration #  6     ecut=    40.26 Ry     beta= 0.70
     Davidson diagonalization with overlap
     ethr =  8.55E-10,  avg # of iterations =  2.9

     total cpu time spent up to now is        6.0 secs

     total energy              =    -631.04702623 Ry
     Harris-Foulkes estimate   =    -631.04702624 Ry
     estimated scf accuracy    <       0.00000002 Ry

     iteration #  7     ecut=    40.26 Ry     beta= 0.70
     Davidson diagonalization with overlap
     ethr =  5.99E-11,  avg # of iterations =  2.5

     total cpu time spent up to now is        6.8 secs

     End of self-consistent calculation

          k = 0.0000 0.0000 0.0000 (  1139 PWs)   bands (ev):

   -14.5598 -14.5598 -14.5598 -14.5114 -14.5114 -14.2097 -14.2097 -14.2097
   -14.1805 -14.1805  -3.4255  10.5169  10.5169  10.5169

          k =-0.1667 0.1667-0.1667 (  1167 PWs)   bands (ev):

   -14.5773 -14.5773 -14.5538 -14.4855 -14.4855 -14.2304 -14.2304 -14.2173
   -14.1639 -14.1639  -3.0411   7.3167   9.8895   9.8895

          k =-0.3333 0.3333-0.3333 (  1149 PWs)   bands (ev):

   -14.5907 -14.5907 -14.5417 -14.4583 -14.4583 -14.2481 -14.2481 -14.2320
   -14.1505 -14.1505  -1.9598   3.9489   9.1463   9.1463

          k = 0.5000-0.5000 0.5000 (  1158 PWs)   bands (ev):

   -14.5932 -14.5932 -14.5355 -14.4515 -14.4515 -14.2512 -14.2512 -14.2398
   -14.1472 -14.1472  -0.9604   2.1592   8.8762   8.8762

          k = 0.0000 0.3333 0.0000 (  1154 PWs)   bands (ev):

   -14.5757 -14.5725 -14.5725 -14.4880 -14.4556 -14.2819 -14.2015 -14.1879
   -14.1879 -14.1587  -2.9101   7.5441   8.9670   8.9670

          k =-0.1667 0.5000-0.1667 (  1137 PWs)   bands (ev):

   -14.6026 -14.5866 -14.5467 -14.4581 -14.4186 -14.3184 -14.2340 -14.2042
   -14.1606 -14.1389  -2.0404   4.8696   7.9003   8.2633

          k = 0.6667-0.3333 0.6667 (  1145 PWs)   bands (ev):

   -14.6177 -14.5980 -14.5131 -14.4308 -14.4189 -14.3091 -14.2662 -14.2419
   -14.1410 -14.1218  -0.7820   2.5014   6.9711   8.1985

          k = 0.5000-0.1667 0.5000 (  1144 PWs)   bands (ev):

   -14.6124 -14.6041 -14.5061 -14.4489 -14.4187 -14.2874 -14.2688 -14.2516
   -14.1327 -14.1304  -1.1855   3.1488   6.6913   8.7773

          k = 0.3333 0.0000 0.3333 (  1147 PWs)   bands (ev):

   -14.5975 -14.5889 -14.5372 -14.4727 -14.4452 -14.2704 -14.2521 -14.2055
   -14.1645 -14.1402  -2.4141   5.6796   7.4975   9.7083

          k = 0.0000 0.6667 0.0000 (  1134 PWs)   bands (ev):

   -14.5950 -14.5950 -14.5584 -14.4251 -14.3908 -14.3590 -14.2596 -14.1848
   -14.1465 -14.1465  -1.3907   4.1210   7.4449   7.4449

          k = 0.8333-0.1667 0.8333 (  1149 PWs)   bands (ev):

   -14.6209 -14.6036 -14.5094 -14.4169 -14.3867 -14.3302 -14.3002 -14.2388
   -14.1310 -14.1157  -0.1459   2.3976   6.0987   7.2669

          k = 0.6667-0.0000 0.6667 (  1141 PWs)   bands (ev):

   -14.6330 -14.6085 -14.4862 -14.3824 -14.3717 -14.3558 -14.3242 -14.2614
   -14.1253 -14.1044   0.0438   2.1964   5.2516   7.7958

          k = 0.0000-1.0000 0.0000 (  1162 PWs)   bands (ev):

   -14.6052 -14.6052 -14.4926 -14.4926 -14.3413 -14.3412 -14.2596 -14.2596
   -14.1268 -14.1268   1.0297   1.0297   6.9050   6.9050

          k = 0.6667-0.3333 1.0000 (  1151 PWs)   bands (ev):

   -14.6146 -14.6114 -14.5061 -14.4282 -14.3772 -14.3577 -14.2665 -14.2444
   -14.1266 -14.1260  -0.9838   3.4341   6.1644   7.6225

          k = 0.5000-0.1667 0.8333 (  1144 PWs)   bands (ev):

   -14.6294 -14.6147 -14.4750 -14.4026 -14.3678 -14.3586 -14.3071 -14.2689
   -14.1214 -14.1076   0.0531   2.1357   5.6580   7.0951

          k =-0.3333-1.0000 0.0000 (  1142 PWs)   bands (ev):

   -14.6225 -14.6225 -14.4472 -14.4472 -14.3477 -14.3476 -14.2954 -14.2954
   -14.1124 -14.1124   1.1395   1.1395   6.0941   6.0941

     highest occupied level (ev):    10.5169

!    total energy              =    -631.04702623 Ry
     Harris-Foulkes estimate   =    -631.04702623 Ry
     estimated scf accuracy    <          2.1E-09 Ry

     total all-electron energy =     -8395.960287 Ry

     The total energy is the sum of the following terms:

     one-electron contribution =    -269.36991037 Ry
     hartree contribution      =     156.80868398 Ry
     xc contribution           =    -113.89535570 Ry
     ewald contribution        =    -207.02204252 Ry
     one-center paw contrib.   =    -197.56840163 Ry

     convergence has been achieved in   7 iterations

     Forces acting on atoms (cartesian axes, Ry/au):

     atom    1 type  1   force =    -0.00000000    0.00000000   -0.00000000
     atom    2 type  1   force =     0.00000000   -0.00000000    0.00000000

     Total force =     0.000000     Total SCF correction =     0.000000


     Computing stress (Cartesian axis) and pressure

          total   stress  (Ry/bohr**3)                   (kbar)     P=  187.28
   0.00127314   0.00000000   0.00000000        187.28      0.00      0.00
   0.00000000   0.00127314  -0.00000000          0.00    187.28     -0.00
   0.00000000  -0.00000000   0.00127314          0.00     -0.00    187.28


     Writing output data file germanium.save/
 
     init_run     :      0.61s CPU      0.62s WALL (       1 calls)
     electrons    :      5.53s CPU      5.55s WALL (       1 calls)
     forces       :      0.06s CPU      0.06s WALL (       1 calls)
     stress       :      0.14s CPU      0.14s WALL (       1 calls)

     Called by init_run:
     wfcinit      :      0.21s CPU      0.21s WALL (       1 calls)
     potinit      :      0.18s CPU      0.18s WALL (       1 calls)
     hinit0       :      0.20s CPU      0.20s WALL (       1 calls)

     Called by electrons:
     c_bands      :      3.53s CPU      3.54s WALL (       8 calls)
     sum_band     :      0.70s CPU      0.71s WALL (       8 calls)
     v_of_rho     :      0.05s CPU      0.06s WALL (       8 calls)
     newd         :      0.08s CPU      0.08s WALL (       8 calls)
     PAW_pot      :      1.34s CPU      1.35s WALL (       8 calls)
     mix_rho      :      0.00s CPU      0.00s WALL (       8 calls)

     Called by c_bands:
     init_us_2    :      0.04s CPU      0.06s WALL (     304 calls)
     cegterg      :      3.23s CPU      3.25s WALL (     128 calls)

     Called by sum_band:
     sum_band:bec :      0.00s CPU      0.00s WALL (     128 calls)
     addusdens    :      0.09s CPU      0.10s WALL (       8 calls)

     Called by *egterg:
     h_psi        :      2.85s CPU      2.87s WALL (     414 calls)
     s_psi        :      0.13s CPU      0.14s WALL (     414 calls)
     g_psi        :      0.01s CPU      0.01s WALL (     270 calls)
     cdiaghg      :      0.08s CPU      0.08s WALL (     382 calls)

     Called by h_psi:
     h_psi:pot    :      2.84s CPU      2.86s WALL (     414 calls)
     h_psi:calbec :      0.15s CPU      0.14s WALL (     414 calls)
     vloc_psi     :      2.55s CPU      2.58s WALL (     414 calls)
     add_vuspsi   :      0.15s CPU      0.14s WALL (     414 calls)

     General routines
     calbec       :      0.24s CPU      0.22s WALL (     622 calls)
     fft          :      0.02s CPU      0.03s WALL (     115 calls)
     ffts         :      0.00s CPU      0.00s WALL (       8 calls)
     fftw         :      2.92s CPU      2.95s WALL (   11200 calls)
 
     Parallel routines
 
     PWSCF        :     6.97s CPU         7.03s WALL

 
   This run was terminated on:  15:55:56  10May2022            

=------------------------------------------------------------------------------=
   JOB DONE.
=------------------------------------------------------------------------------=
