
     Program PWSCF v.6.3MaX starts on 10May2022 at 15:54:41 

     This program is part of the open-source Quantum ESPRESSO suite
     for quantum simulation of materials; please cite
         "P. Giannozzi et al., J. Phys.:Condens. Matter 21 395502 (2009);
         "P. Giannozzi et al., J. Phys.:Condens. Matter 29 465901 (2017);
          URL http://www.quantum-espresso.org", 
     in publications or presentations arising from this work. More details at
     http://www.quantum-espresso.org/quote

     Parallel version (MPI), running on     1 processors

     MPI processes distributed on     1 nodes
     Waiting for input...
     Reading input from standard input

     Current dimensions of program PWSCF are:
     Max number of different atomic species (ntypx) = 10
     Max number of k-points (npk) =  40000
     Max angular momentum in pseudopotentials (lmaxx) =  3
               file Ge.pbe-dn-kjpaw_psl.0.2.2.UPF: wavefunction(s)  4P 3D renormalized

     Subspace diagonalization in iterative solution of the eigenvalue problem:
     a serial algorithm will be used

 
     G-vector sticks info
     --------------------
     sticks:   dense  smooth     PW     G-vecs:    dense   smooth      PW
     Sum         283     283     91                 3143     3143     609
 


     bravais-lattice index     =            2
     lattice parameter (alat)  =      10.2000  a.u.
     unit-cell volume          =     265.3020 (a.u.)^3
     number of atoms/cell      =            2
     number of atomic types    =            1
     number of electrons       =        28.00
     number of Kohn-Sham states=           14
     kinetic-energy cutoff     =      19.7370  Ry
     charge density cutoff     =      78.9480  Ry
     convergence threshold     =      1.0E-08
     mixing beta               =       0.7000
     number of iterations used =            8  plain     mixing
     Exchange-correlation      = SLA PW PBX PBC ( 1  4  3  4 0 0)

     celldm(1)=  10.200000  celldm(2)=   0.000000  celldm(3)=   0.000000
     celldm(4)=   0.000000  celldm(5)=   0.000000  celldm(6)=   0.000000

     crystal axes: (cart. coord. in units of alat)
               a(1) = (  -0.500000   0.000000   0.500000 )  
               a(2) = (   0.000000   0.500000   0.500000 )  
               a(3) = (  -0.500000   0.500000   0.000000 )  

     reciprocal axes: (cart. coord. in units 2 pi/alat)
               b(1) = ( -1.000000 -1.000000  1.000000 )  
               b(2) = (  1.000000  1.000000  1.000000 )  
               b(3) = ( -1.000000  1.000000 -1.000000 )  


     PseudoPot. # 1 for Ge read from file:
     ../../PP/Ge.pbe-dn-kjpaw_psl.0.2.2.UPF
     MD5 check sum: acf6dd3aa1b4e03129ff8bf786ac0282
     Pseudo is Projector augmented-wave + core cor, Zval = 14.0
     Generated using "atomic" code by A. Dal Corso v.5.0.2 svn rev. 9415
     Shape of augmentation charge: PSQ
     Using radial grid of 1207 points,  6 beta functions with: 
                l(1) =   0
                l(2) =   0
                l(3) =   1
                l(4) =   1
                l(5) =   2
                l(6) =   2
     Q(r) pseudized with 0 coefficients 


     atomic species   valence    mass     pseudopotential
        Ge            14.00    28.08600     Ge( 1.00)

     48 Sym. Ops., with inversion, found (24 have fractional translation)



   Cartesian axes

     site n.     atom                  positions (alat units)
         1           Ge  tau(   1) = (   0.0000000   0.0000000   0.0000000  )
         2           Ge  tau(   2) = (  -0.2500000   0.2500000   0.2500000  )

     number of k points=    16
                       cart. coord. in units 2pi/alat
        k(    1) = (   0.0000000   0.0000000   0.0000000), wk =   0.0092593
        k(    2) = (  -0.1666667   0.1666667  -0.1666667), wk =   0.0740741
        k(    3) = (  -0.3333333   0.3333333  -0.3333333), wk =   0.0740741
        k(    4) = (   0.5000000  -0.5000000   0.5000000), wk =   0.0370370
        k(    5) = (   0.0000000   0.3333333   0.0000000), wk =   0.0555556
        k(    6) = (  -0.1666667   0.5000000  -0.1666667), wk =   0.2222222
        k(    7) = (   0.6666667  -0.3333333   0.6666667), wk =   0.2222222
        k(    8) = (   0.5000000  -0.1666667   0.5000000), wk =   0.2222222
        k(    9) = (   0.3333333   0.0000000   0.3333333), wk =   0.1111111
        k(   10) = (   0.0000000   0.6666667   0.0000000), wk =   0.0555556
        k(   11) = (   0.8333333  -0.1666667   0.8333333), wk =   0.2222222
        k(   12) = (   0.6666667  -0.0000000   0.6666667), wk =   0.1111111
        k(   13) = (   0.0000000  -1.0000000   0.0000000), wk =   0.0277778
        k(   14) = (   0.6666667  -0.3333333   1.0000000), wk =   0.2222222
        k(   15) = (   0.5000000  -0.1666667   0.8333333), wk =   0.2222222
        k(   16) = (  -0.3333333  -1.0000000   0.0000000), wk =   0.1111111

     Dense  grid:     3143 G-vectors     FFT dimensions: (  24,  24,  24)

     Estimated max dynamical RAM per process >      14.70 MB

     Check: negative/imaginary core charge=   -0.001102    0.000000

     Initial potential from superposition of free atoms

     starting charge   27.99847, renormalised to   28.00000
     Starting wfcs are   18 randomized atomic wfcs
     Checking if some PAW data can be deallocated... 

     total cpu time spent up to now is        1.1 secs

     Self-consistent Calculation

     iteration #  1     ecut=    19.74 Ry     beta= 0.70
     Davidson diagonalization with overlap
     ethr =  1.00E-02,  avg # of iterations =  2.0

     total cpu time spent up to now is        1.5 secs

     total energy              =    -628.81530848 Ry
     Harris-Foulkes estimate   =    -629.04863494 Ry
     estimated scf accuracy    <       0.29871241 Ry

     iteration #  2     ecut=    19.74 Ry     beta= 0.70
     Davidson diagonalization with overlap
     ethr =  1.07E-03,  avg # of iterations =  2.0

     total cpu time spent up to now is        2.0 secs

     total energy              =    -628.89672336 Ry
     Harris-Foulkes estimate   =    -628.91190437 Ry
     estimated scf accuracy    <       0.02029700 Ry

     iteration #  3     ecut=    19.74 Ry     beta= 0.70
     Davidson diagonalization with overlap
     ethr =  7.25E-05,  avg # of iterations =  2.0

     total cpu time spent up to now is        2.4 secs

     total energy              =    -628.90217797 Ry
     Harris-Foulkes estimate   =    -628.90210178 Ry
     estimated scf accuracy    <       0.00020091 Ry

     iteration #  4     ecut=    19.74 Ry     beta= 0.70
     Davidson diagonalization with overlap
     ethr =  7.18E-07,  avg # of iterations =  2.8

     total cpu time spent up to now is        2.9 secs

     total energy              =    -628.90224500 Ry
     Harris-Foulkes estimate   =    -628.90222932 Ry
     estimated scf accuracy    <       0.00000699 Ry

     iteration #  5     ecut=    19.74 Ry     beta= 0.70
     Davidson diagonalization with overlap
     ethr =  2.50E-08,  avg # of iterations =  2.2

     total cpu time spent up to now is        3.3 secs

     total energy              =    -628.90224616 Ry
     Harris-Foulkes estimate   =    -628.90224616 Ry
     estimated scf accuracy    <       0.00000006 Ry

     iteration #  6     ecut=    19.74 Ry     beta= 0.70
     Davidson diagonalization with overlap
     ethr =  2.18E-10,  avg # of iterations =  3.9

     total cpu time spent up to now is        3.8 secs

     End of self-consistent calculation

          k = 0.0000 0.0000 0.0000 (   411 PWs)   bands (ev):

   -16.9340 -16.9340 -16.6984 -16.6984 -16.6984 -16.0253 -16.0253 -15.7353
   -15.7353 -15.7353  -3.4231  10.4783  10.4783  10.4783

          k =-0.1667 0.1667-0.1667 (   380 PWs)   bands (ev):

   -16.2661 -16.2661 -16.1729 -16.0952 -16.0952 -15.5948 -15.5948 -15.3600
   -15.3600 -15.1744  -3.0422   7.2504   9.8805   9.8805

          k =-0.3333 0.3333-0.3333 (   401 PWs)   bands (ev):

   -16.5709 -16.5108 -16.5108 -16.3130 -16.3130 -16.2701 -16.1102 -16.1102
   -15.7708 -15.7708  -1.9742   3.9171   9.1612   9.1612

          k = 0.5000-0.5000 0.5000 (   392 PWs)   bands (ev):

   -16.3754 -16.3754 -16.3285 -16.3285 -16.2780 -16.2780 -15.9776 -15.9603
   -15.3823 -15.3823  -0.9947   2.1569   8.9010   8.9010

          k = 0.0000 0.3333 0.0000 (   383 PWs)   bands (ev):

   -16.5024 -16.1364 -16.1364 -16.1120 -15.9065 -15.8272 -15.6500 -15.6389
   -15.3318 -15.3318  -2.9122   7.4254   8.9856   8.9856

          k =-0.1667 0.5000-0.1667 (   390 PWs)   bands (ev):

   -16.4788 -16.2848 -16.2339 -16.1453 -16.1056 -16.0546 -16.0324 -15.9235
   -15.5802 -15.3472  -2.0515   4.8069   7.8938   8.2992

          k = 0.6667-0.3333 0.6667 (   393 PWs)   bands (ev):

   -16.5098 -16.4366 -16.2740 -16.2357 -16.1669 -16.1360 -16.0188 -15.9161
   -15.7922 -15.4476  -0.8139   2.4796   6.9665   8.2374

          k = 0.5000-0.1667 0.5000 (   394 PWs)   bands (ev):

   -16.4185 -16.4173 -16.3472 -16.2597 -16.1575 -16.0925 -16.0572 -15.9775
   -15.7190 -15.6826  -1.2097   3.1146   6.6968   8.8023

          k = 0.3333 0.0000 0.3333 (   385 PWs)   bands (ev):

   -16.3502 -16.2206 -16.1931 -16.0616 -16.0496 -15.9546 -15.7061 -15.6200
   -15.5766 -15.5342  -2.4216   5.6079   7.5129   9.7055

          k = 0.0000 0.6667 0.0000 (   387 PWs)   bands (ev):

   -16.3046 -16.3046 -16.1328 -16.0809 -16.0381 -16.0381 -15.9639 -15.7927
   -15.4607 -15.4146  -1.4067   4.0412   7.4991   7.4991

          k = 0.8333-0.1667 0.8333 (   392 PWs)   bands (ev):

   -16.4303 -16.3635 -16.3352 -16.2226 -16.0930 -16.0695 -15.9658 -15.8885
   -15.7756 -15.4852  -0.1776   2.3406   6.1396   7.3261

          k = 0.6667-0.0000 0.6667 (   403 PWs)   bands (ev):

   -16.5639 -16.4657 -16.4532 -16.3696 -16.3599 -16.2892 -16.1724 -16.1364
   -16.0483 -15.9843   0.0035   2.1475   5.2904   7.8431

          k = 0.0000-1.0000 0.0000 (   388 PWs)   bands (ev):

   -16.3049 -16.3049 -16.2600 -16.2600 -16.1005 -16.1005 -15.6915 -15.6915
   -15.5851 -15.5851   0.9873   0.9873   6.9724   6.9724

          k = 0.6667-0.3333 1.0000 (   397 PWs)   bands (ev):

   -16.3837 -16.3661 -16.3413 -16.3315 -16.2071 -16.1406 -16.0892 -16.0772
   -15.8939 -15.8596  -1.0075   3.3699   6.1956   7.6540

          k = 0.5000-0.1667 0.8333 (   394 PWs)   bands (ev):

   -16.4952 -16.4457 -16.4172 -16.3095 -16.0726 -15.9903 -15.9064 -15.8996
   -15.8381 -15.8033   0.0121   2.0930   5.6857   7.1341

          k =-0.3333-1.0000 0.0000 (   390 PWs)   bands (ev):

   -16.3571 -16.3571 -16.2267 -16.2267 -16.0259 -16.0259 -15.9004 -15.9004
   -15.6900 -15.6900   1.0922   1.0922   6.1384   6.1384

     highest occupied level (ev):    10.4783

!    total energy              =    -628.90224619 Ry
     Harris-Foulkes estimate   =    -628.90224619 Ry
     estimated scf accuracy    <          6.1E-09 Ry

     total all-electron energy =     -8393.815507 Ry

     The total energy is the sum of the following terms:

     one-electron contribution =    -263.52194628 Ry
     hartree contribution      =     152.40603032 Ry
     xc contribution           =    -112.85541533 Ry
     ewald contribution        =    -207.02204360 Ry
     one-center paw contrib.   =    -197.90887129 Ry

     convergence has been achieved in   6 iterations

     Forces acting on atoms (cartesian axes, Ry/au):

     atom    1 type  1   force =    -0.00000000   -0.00000000   -0.00000000
     atom    2 type  1   force =     0.00000000    0.00000000    0.00000000

     Total force =     0.000000     Total SCF correction =     0.000000


     Computing stress (Cartesian axis) and pressure

          total   stress  (Ry/bohr**3)                   (kbar)     P=-5411.76
  -0.03678843   0.00000000   0.00000000      -5411.76      0.00      0.00
   0.00000000  -0.03678843  -0.00000000          0.00  -5411.76     -0.00
   0.00000000  -0.00000000  -0.03678843          0.00     -0.00  -5411.76


     Writing output data file germanium.save/
 
     init_run     :      0.42s CPU      0.44s WALL (       1 calls)
     electrons    :      2.69s CPU      2.72s WALL (       1 calls)
     forces       :      0.02s CPU      0.02s WALL (       1 calls)
     stress       :      0.05s CPU      0.05s WALL (       1 calls)

     Called by init_run:
     wfcinit      :      0.10s CPU      0.10s WALL (       1 calls)
     potinit      :      0.18s CPU      0.18s WALL (       1 calls)
     hinit0       :      0.14s CPU      0.15s WALL (       1 calls)

     Called by electrons:
     c_bands      :      1.40s CPU      1.40s WALL (       6 calls)
     sum_band     :      0.23s CPU      0.24s WALL (       6 calls)
     v_of_rho     :      0.03s CPU      0.03s WALL (       7 calls)
     newd         :      0.02s CPU      0.03s WALL (       7 calls)
     PAW_pot      :      1.17s CPU      1.18s WALL (       7 calls)
     mix_rho      :      0.00s CPU      0.00s WALL (       6 calls)

     Called by c_bands:
     init_us_2    :      0.01s CPU      0.02s WALL (     240 calls)
     cegterg      :      1.33s CPU      1.33s WALL (      96 calls)

     Called by sum_band:
     sum_band:bec :      0.00s CPU      0.00s WALL (      96 calls)
     addusdens    :      0.02s CPU      0.03s WALL (       6 calls)

     Called by *egterg:
     h_psi        :      1.15s CPU      1.17s WALL (     350 calls)
     s_psi        :      0.06s CPU      0.04s WALL (     350 calls)
     g_psi        :      0.00s CPU      0.00s WALL (     238 calls)
     cdiaghg      :      0.08s CPU      0.08s WALL (     334 calls)

     Called by h_psi:
     h_psi:pot    :      1.14s CPU      1.17s WALL (     350 calls)
     h_psi:calbec :      0.03s CPU      0.04s WALL (     350 calls)
     vloc_psi     :      1.06s CPU      1.08s WALL (     350 calls)
     add_vuspsi   :      0.06s CPU      0.04s WALL (     350 calls)

     General routines
     calbec       :      0.06s CPU      0.07s WALL (     526 calls)
     fft          :      0.02s CPU      0.02s WALL (     103 calls)
     ffts         :      0.00s CPU      0.00s WALL (       6 calls)
     fftw         :      1.15s CPU      1.19s WALL (    9670 calls)
 
     Parallel routines
 
     PWSCF        :     3.83s CPU         3.90s WALL

 
   This run was terminated on:  15:54:45  10May2022            

=------------------------------------------------------------------------------=
   JOB DONE.
=------------------------------------------------------------------------------=
