
     Program PWSCF v.6.3MaX starts on 10May2022 at 15:54:49 

     This program is part of the open-source Quantum ESPRESSO suite
     for quantum simulation of materials; please cite
         "P. Giannozzi et al., J. Phys.:Condens. Matter 21 395502 (2009);
         "P. Giannozzi et al., J. Phys.:Condens. Matter 29 465901 (2017);
          URL http://www.quantum-espresso.org", 
     in publications or presentations arising from this work. More details at
     http://www.quantum-espresso.org/quote

     Parallel version (MPI), running on     1 processors

     MPI processes distributed on     1 nodes
     Waiting for input...
     Reading input from standard input

     Current dimensions of program PWSCF are:
     Max number of different atomic species (ntypx) = 10
     Max number of k-points (npk) =  40000
     Max angular momentum in pseudopotentials (lmaxx) =  3
               file Ge.pbe-dn-kjpaw_psl.0.2.2.UPF: wavefunction(s)  4P 3D renormalized

     Subspace diagonalization in iterative solution of the eigenvalue problem:
     a serial algorithm will be used

 
     G-vector sticks info
     --------------------
     sticks:   dense  smooth     PW     G-vecs:    dense   smooth      PW
     Sum         313     313    109                 3839     3839     749
 


     bravais-lattice index     =            2
     lattice parameter (alat)  =      10.2000  a.u.
     unit-cell volume          =     265.3020 (a.u.)^3
     number of atoms/cell      =            2
     number of atomic types    =            1
     number of electrons       =        28.00
     number of Kohn-Sham states=           14
     kinetic-energy cutoff     =      22.8950  Ry
     charge density cutoff     =      91.5800  Ry
     convergence threshold     =      1.0E-08
     mixing beta               =       0.7000
     number of iterations used =            8  plain     mixing
     Exchange-correlation      = SLA PW PBX PBC ( 1  4  3  4 0 0)

     celldm(1)=  10.200000  celldm(2)=   0.000000  celldm(3)=   0.000000
     celldm(4)=   0.000000  celldm(5)=   0.000000  celldm(6)=   0.000000

     crystal axes: (cart. coord. in units of alat)
               a(1) = (  -0.500000   0.000000   0.500000 )  
               a(2) = (   0.000000   0.500000   0.500000 )  
               a(3) = (  -0.500000   0.500000   0.000000 )  

     reciprocal axes: (cart. coord. in units 2 pi/alat)
               b(1) = ( -1.000000 -1.000000  1.000000 )  
               b(2) = (  1.000000  1.000000  1.000000 )  
               b(3) = ( -1.000000  1.000000 -1.000000 )  


     PseudoPot. # 1 for Ge read from file:
     ../../PP/Ge.pbe-dn-kjpaw_psl.0.2.2.UPF
     MD5 check sum: acf6dd3aa1b4e03129ff8bf786ac0282
     Pseudo is Projector augmented-wave + core cor, Zval = 14.0
     Generated using "atomic" code by A. Dal Corso v.5.0.2 svn rev. 9415
     Shape of augmentation charge: PSQ
     Using radial grid of 1207 points,  6 beta functions with: 
                l(1) =   0
                l(2) =   0
                l(3) =   1
                l(4) =   1
                l(5) =   2
                l(6) =   2
     Q(r) pseudized with 0 coefficients 


     atomic species   valence    mass     pseudopotential
        Ge            14.00    28.08600     Ge( 1.00)

     48 Sym. Ops., with inversion, found (24 have fractional translation)



   Cartesian axes

     site n.     atom                  positions (alat units)
         1           Ge  tau(   1) = (   0.0000000   0.0000000   0.0000000  )
         2           Ge  tau(   2) = (  -0.2500000   0.2500000   0.2500000  )

     number of k points=    16
                       cart. coord. in units 2pi/alat
        k(    1) = (   0.0000000   0.0000000   0.0000000), wk =   0.0092593
        k(    2) = (  -0.1666667   0.1666667  -0.1666667), wk =   0.0740741
        k(    3) = (  -0.3333333   0.3333333  -0.3333333), wk =   0.0740741
        k(    4) = (   0.5000000  -0.5000000   0.5000000), wk =   0.0370370
        k(    5) = (   0.0000000   0.3333333   0.0000000), wk =   0.0555556
        k(    6) = (  -0.1666667   0.5000000  -0.1666667), wk =   0.2222222
        k(    7) = (   0.6666667  -0.3333333   0.6666667), wk =   0.2222222
        k(    8) = (   0.5000000  -0.1666667   0.5000000), wk =   0.2222222
        k(    9) = (   0.3333333   0.0000000   0.3333333), wk =   0.1111111
        k(   10) = (   0.0000000   0.6666667   0.0000000), wk =   0.0555556
        k(   11) = (   0.8333333  -0.1666667   0.8333333), wk =   0.2222222
        k(   12) = (   0.6666667  -0.0000000   0.6666667), wk =   0.1111111
        k(   13) = (   0.0000000  -1.0000000   0.0000000), wk =   0.0277778
        k(   14) = (   0.6666667  -0.3333333   1.0000000), wk =   0.2222222
        k(   15) = (   0.5000000  -0.1666667   0.8333333), wk =   0.2222222
        k(   16) = (  -0.3333333  -1.0000000   0.0000000), wk =   0.1111111

     Dense  grid:     3839 G-vectors     FFT dimensions: (  24,  24,  24)

     Estimated max dynamical RAM per process >      17.62 MB

     Check: negative/imaginary core charge=   -0.000277    0.000000

     Initial potential from superposition of free atoms

     starting charge   27.99847, renormalised to   28.00000
     Starting wfcs are   18 randomized atomic wfcs
     Checking if some PAW data can be deallocated... 

     total cpu time spent up to now is        1.1 secs

     Self-consistent Calculation

     iteration #  1     ecut=    22.89 Ry     beta= 0.70
     Davidson diagonalization with overlap
     ethr =  1.00E-02,  avg # of iterations =  2.0

     Threshold (ethr) on eigenvalues was too large:
     Diagonalizing with lowered threshold

     Davidson diagonalization with overlap
     ethr =  3.09E-04,  avg # of iterations =  1.5

     total cpu time spent up to now is        1.7 secs

     total energy              =    -630.34593354 Ry
     Harris-Foulkes estimate   =    -630.40220531 Ry
     estimated scf accuracy    <       0.09618129 Ry

     iteration #  2     ecut=    22.89 Ry     beta= 0.70
     Davidson diagonalization with overlap
     ethr =  3.44E-04,  avg # of iterations =  2.0

     total cpu time spent up to now is        2.1 secs

     total energy              =    -630.36457582 Ry
     Harris-Foulkes estimate   =    -630.36918675 Ry
     estimated scf accuracy    <       0.00745804 Ry

     iteration #  3     ecut=    22.89 Ry     beta= 0.70
     Davidson diagonalization with overlap
     ethr =  2.66E-05,  avg # of iterations =  2.0

     total cpu time spent up to now is        2.6 secs

     total energy              =    -630.36652281 Ry
     Harris-Foulkes estimate   =    -630.36660912 Ry
     estimated scf accuracy    <       0.00030022 Ry

     iteration #  4     ecut=    22.89 Ry     beta= 0.70
     Davidson diagonalization with overlap
     ethr =  1.07E-06,  avg # of iterations =  2.2

     total cpu time spent up to now is        3.1 secs

     total energy              =    -630.36659463 Ry
     Harris-Foulkes estimate   =    -630.36658739 Ry
     estimated scf accuracy    <       0.00000466 Ry

     iteration #  5     ecut=    22.89 Ry     beta= 0.70
     Davidson diagonalization with overlap
     ethr =  1.66E-08,  avg # of iterations =  3.0

     total cpu time spent up to now is        3.5 secs

     total energy              =    -630.36659569 Ry
     Harris-Foulkes estimate   =    -630.36659567 Ry
     estimated scf accuracy    <       0.00000002 Ry

     iteration #  6     ecut=    22.89 Ry     beta= 0.70
     Davidson diagonalization with overlap
     ethr =  8.58E-11,  avg # of iterations =  3.7

     total cpu time spent up to now is        4.0 secs

     End of self-consistent calculation

          k = 0.0000 0.0000 0.0000 (   531 PWs)   bands (ev):

   -15.6157 -15.6157 -15.6157 -15.4271 -15.4271 -15.1518 -15.1518 -15.1493
   -15.1493 -15.1493  -3.4027  10.5073  10.5073  10.5073

          k =-0.1667 0.1667-0.1667 (   507 PWs)   bands (ev):

   -15.5300 -15.5300 -15.4942 -15.2898 -15.2898 -15.0590 -15.0590 -15.0263
   -14.9852 -14.9852  -3.0203   7.3072   9.8892   9.8892

          k =-0.3333 0.3333-0.3333 (   492 PWs)   bands (ev):

   -15.3834 -15.3834 -15.3808 -15.1964 -15.1964 -15.0959 -15.0392 -15.0392
   -14.8941 -14.8941  -1.9462   3.9572   9.1549   9.1549

          k = 0.5000-0.5000 0.5000 (   476 PWs)   bands (ev):

   -15.2512 -15.2512 -15.2434 -15.2434 -15.2350 -14.9454 -14.9041 -14.9041
   -14.7869 -14.7869  -0.9581   2.1830   8.8879   8.8879

          k = 0.0000 0.3333 0.0000 (   504 PWs)   bands (ev):

   -15.5242 -15.4660 -15.4660 -15.2971 -15.2558 -15.1369 -15.0640 -15.0276
   -14.9374 -14.9374  -2.8898   7.5168   8.9765   8.9765

          k =-0.1667 0.5000-0.1667 (   497 PWs)   bands (ev):

   -15.4865 -15.4053 -15.3948 -15.2738 -15.2165 -15.1257 -15.0287 -14.9960
   -14.9265 -14.8867  -2.0250   4.8627   7.9116   8.2797

          k = 0.6667-0.3333 0.6667 (   484 PWs)   bands (ev):

   -15.3980 -15.3268 -15.2598 -15.2237 -15.1923 -15.0671 -14.9803 -14.9747
   -14.8091 -14.7642  -0.7781   2.5143   6.9868   8.2160

          k = 0.5000-0.1667 0.5000 (   495 PWs)   bands (ev):

   -15.4303 -15.4289 -15.2854 -15.2686 -15.2386 -15.1169 -15.0749 -14.9888
   -14.9482 -14.8415  -1.1773   3.1555   6.7115   8.7894

          k = 0.3333 0.0000 0.3333 (   491 PWs)   bands (ev):

   -15.4711 -15.3597 -15.3059 -15.2146 -15.1672 -15.0564 -15.0563 -14.9444
   -14.9296 -14.9192  -2.3967   5.6682   7.5185   9.7106

          k = 0.0000 0.6667 0.0000 (   480 PWs)   bands (ev):

   -15.4601 -15.2949 -15.2949 -15.1687 -15.1575 -15.0850 -14.9612 -14.7990
   -14.7987 -14.7987  -1.3779   4.1056   7.4688   7.4688

          k = 0.8333-0.1667 0.8333 (   482 PWs)   bands (ev):

   -15.3973 -15.3285 -15.3017 -15.1603 -15.1418 -15.1216 -15.0038 -14.9711
   -14.7899 -14.7572  -0.1412   2.3913   6.1321   7.2928

          k = 0.6667-0.0000 0.6667 (   498 PWs)   bands (ev):

   -15.5209 -15.4171 -15.3243 -15.2026 -15.1857 -15.1646 -15.1192 -15.1170
   -14.9031 -14.8471   0.0438   2.1942   5.2910   7.8168

          k = 0.0000-1.0000 0.0000 (   468 PWs)   bands (ev):

   -15.2947 -15.2947 -15.1640 -15.1640 -14.9831 -14.9831 -14.9416 -14.9416
   -14.7191 -14.7191   1.0301   1.0301   6.9343   6.9343

          k = 0.6667-0.3333 1.0000 (   491 PWs)   bands (ev):

   -15.4758 -15.3839 -15.2565 -15.2379 -15.1832 -15.1815 -15.0753 -14.9488
   -14.8719 -14.8031  -0.9749   3.4253   6.1955   7.6440

          k = 0.5000-0.1667 0.8333 (   490 PWs)   bands (ev):

   -15.4885 -15.4464 -15.2585 -15.2108 -15.1836 -15.1486 -15.0494 -14.9965
   -14.8015 -14.7891   0.0526   2.1366   5.6907   7.1218

          k =-0.3333-1.0000 0.0000 (   490 PWs)   bands (ev):

   -15.4323 -15.4323 -15.2383 -15.2383 -15.1495 -15.1495 -15.1036 -15.1036
   -14.7907 -14.7907   1.1366   1.1366   6.1284   6.1284

     highest occupied level (ev):    10.5073

!    total energy              =    -630.36659570 Ry
     Harris-Foulkes estimate   =    -630.36659570 Ry
     estimated scf accuracy    <          1.3E-09 Ry

     total all-electron energy =     -8395.279857 Ry

     The total energy is the sum of the following terms:

     one-electron contribution =    -267.33205895 Ry
     hartree contribution      =     155.13700516 Ry
     xc contribution           =    -113.44593050 Ry
     ewald contribution        =    -207.02204264 Ry
     one-center paw contrib.   =    -197.70356876 Ry

     convergence has been achieved in   6 iterations

     Forces acting on atoms (cartesian axes, Ry/au):

     atom    1 type  1   force =     0.00000000    0.00000000    0.00000000
     atom    2 type  1   force =    -0.00000000   -0.00000000   -0.00000000

     Total force =     0.000000     Total SCF correction =     0.000000


     Computing stress (Cartesian axis) and pressure

          total   stress  (Ry/bohr**3)                   (kbar)     P=-1950.04
  -0.01325614   0.00000000  -0.00000000      -1950.04      0.00     -0.00
   0.00000000  -0.01325614  -0.00000000          0.00  -1950.04     -0.00
  -0.00000000  -0.00000000  -0.01325614         -0.00     -0.00  -1950.04


     Writing output data file germanium.save/
 
     init_run     :      0.43s CPU      0.44s WALL (       1 calls)
     electrons    :      2.88s CPU      2.88s WALL (       1 calls)
     forces       :      0.02s CPU      0.03s WALL (       1 calls)
     stress       :      0.06s CPU      0.06s WALL (       1 calls)

     Called by init_run:
     wfcinit      :      0.10s CPU      0.10s WALL (       1 calls)
     potinit      :      0.17s CPU      0.18s WALL (       1 calls)
     hinit0       :      0.15s CPU      0.16s WALL (       1 calls)

     Called by electrons:
     c_bands      :      1.55s CPU      1.54s WALL (       7 calls)
     sum_band     :      0.28s CPU      0.29s WALL (       7 calls)
     v_of_rho     :      0.02s CPU      0.02s WALL (       7 calls)
     newd         :      0.02s CPU      0.03s WALL (       7 calls)
     PAW_pot      :      1.18s CPU      1.17s WALL (       7 calls)
     mix_rho      :      0.01s CPU      0.00s WALL (       7 calls)

     Called by c_bands:
     init_us_2    :      0.02s CPU      0.02s WALL (     272 calls)
     cegterg      :      1.46s CPU      1.43s WALL (     112 calls)

     Called by sum_band:
     sum_band:bec :      0.00s CPU      0.00s WALL (     112 calls)
     addusdens    :      0.03s CPU      0.04s WALL (       7 calls)

     Called by *egterg:
     h_psi        :      1.24s CPU      1.24s WALL (     390 calls)
     s_psi        :      0.07s CPU      0.06s WALL (     390 calls)
     g_psi        :      0.00s CPU      0.00s WALL (     262 calls)
     cdiaghg      :      0.06s CPU      0.08s WALL (     358 calls)

     Called by h_psi:
     h_psi:pot    :      1.23s CPU      1.23s WALL (     390 calls)
     h_psi:calbec :      0.07s CPU      0.06s WALL (     390 calls)
     vloc_psi     :      1.10s CPU      1.12s WALL (     390 calls)
     add_vuspsi   :      0.07s CPU      0.06s WALL (     390 calls)

     General routines
     calbec       :      0.10s CPU      0.09s WALL (     582 calls)
     fft          :      0.00s CPU      0.01s WALL (     104 calls)
     ffts         :      0.00s CPU      0.00s WALL (       7 calls)
     fftw         :      1.21s CPU      1.26s WALL (   10286 calls)
 
     Parallel routines
 
     PWSCF        :     4.04s CPU         4.10s WALL

 
   This run was terminated on:  15:54:53  10May2022            

=------------------------------------------------------------------------------=
   JOB DONE.
=------------------------------------------------------------------------------=
