
     Program PWSCF v.6.3MaX starts on 10May2022 at 15:54:57 

     This program is part of the open-source Quantum ESPRESSO suite
     for quantum simulation of materials; please cite
         "P. Giannozzi et al., J. Phys.:Condens. Matter 21 395502 (2009);
         "P. Giannozzi et al., J. Phys.:Condens. Matter 29 465901 (2017);
          URL http://www.quantum-espresso.org", 
     in publications or presentations arising from this work. More details at
     http://www.quantum-espresso.org/quote

     Parallel version (MPI), running on     1 processors

     MPI processes distributed on     1 nodes
     Waiting for input...
     Reading input from standard input

     Current dimensions of program PWSCF are:
     Max number of different atomic species (ntypx) = 10
     Max number of k-points (npk) =  40000
     Max angular momentum in pseudopotentials (lmaxx) =  3
               file Ge.pbe-dn-kjpaw_psl.0.2.2.UPF: wavefunction(s)  4P 3D renormalized

     Subspace diagonalization in iterative solution of the eigenvalue problem:
     a serial algorithm will be used

 
     G-vector sticks info
     --------------------
     sticks:   dense  smooth     PW     G-vecs:    dense   smooth      PW
     Sum         367     367    121                 4693     4693     893
 


     bravais-lattice index     =            2
     lattice parameter (alat)  =      10.2000  a.u.
     unit-cell volume          =     265.3020 (a.u.)^3
     number of atoms/cell      =            2
     number of atomic types    =            1
     number of electrons       =        28.00
     number of Kohn-Sham states=           14
     kinetic-energy cutoff     =      26.0530  Ry
     charge density cutoff     =     104.2120  Ry
     convergence threshold     =      1.0E-08
     mixing beta               =       0.7000
     number of iterations used =            8  plain     mixing
     Exchange-correlation      = SLA PW PBX PBC ( 1  4  3  4 0 0)

     celldm(1)=  10.200000  celldm(2)=   0.000000  celldm(3)=   0.000000
     celldm(4)=   0.000000  celldm(5)=   0.000000  celldm(6)=   0.000000

     crystal axes: (cart. coord. in units of alat)
               a(1) = (  -0.500000   0.000000   0.500000 )  
               a(2) = (   0.000000   0.500000   0.500000 )  
               a(3) = (  -0.500000   0.500000   0.000000 )  

     reciprocal axes: (cart. coord. in units 2 pi/alat)
               b(1) = ( -1.000000 -1.000000  1.000000 )  
               b(2) = (  1.000000  1.000000  1.000000 )  
               b(3) = ( -1.000000  1.000000 -1.000000 )  


     PseudoPot. # 1 for Ge read from file:
     ../../PP/Ge.pbe-dn-kjpaw_psl.0.2.2.UPF
     MD5 check sum: acf6dd3aa1b4e03129ff8bf786ac0282
     Pseudo is Projector augmented-wave + core cor, Zval = 14.0
     Generated using "atomic" code by A. Dal Corso v.5.0.2 svn rev. 9415
     Shape of augmentation charge: PSQ
     Using radial grid of 1207 points,  6 beta functions with: 
                l(1) =   0
                l(2) =   0
                l(3) =   1
                l(4) =   1
                l(5) =   2
                l(6) =   2
     Q(r) pseudized with 0 coefficients 


     atomic species   valence    mass     pseudopotential
        Ge            14.00    28.08600     Ge( 1.00)

     48 Sym. Ops., with inversion, found (24 have fractional translation)



   Cartesian axes

     site n.     atom                  positions (alat units)
         1           Ge  tau(   1) = (   0.0000000   0.0000000   0.0000000  )
         2           Ge  tau(   2) = (  -0.2500000   0.2500000   0.2500000  )

     number of k points=    16
                       cart. coord. in units 2pi/alat
        k(    1) = (   0.0000000   0.0000000   0.0000000), wk =   0.0092593
        k(    2) = (  -0.1666667   0.1666667  -0.1666667), wk =   0.0740741
        k(    3) = (  -0.3333333   0.3333333  -0.3333333), wk =   0.0740741
        k(    4) = (   0.5000000  -0.5000000   0.5000000), wk =   0.0370370
        k(    5) = (   0.0000000   0.3333333   0.0000000), wk =   0.0555556
        k(    6) = (  -0.1666667   0.5000000  -0.1666667), wk =   0.2222222
        k(    7) = (   0.6666667  -0.3333333   0.6666667), wk =   0.2222222
        k(    8) = (   0.5000000  -0.1666667   0.5000000), wk =   0.2222222
        k(    9) = (   0.3333333   0.0000000   0.3333333), wk =   0.1111111
        k(   10) = (   0.0000000   0.6666667   0.0000000), wk =   0.0555556
        k(   11) = (   0.8333333  -0.1666667   0.8333333), wk =   0.2222222
        k(   12) = (   0.6666667  -0.0000000   0.6666667), wk =   0.1111111
        k(   13) = (   0.0000000  -1.0000000   0.0000000), wk =   0.0277778
        k(   14) = (   0.6666667  -0.3333333   1.0000000), wk =   0.2222222
        k(   15) = (   0.5000000  -0.1666667   0.8333333), wk =   0.2222222
        k(   16) = (  -0.3333333  -1.0000000   0.0000000), wk =   0.1111111

     Dense  grid:     4693 G-vectors     FFT dimensions: (  24,  24,  24)

     Estimated max dynamical RAM per process >      21.12 MB

     Check: negative/imaginary core charge=   -0.000197    0.000000

     Initial potential from superposition of free atoms

     starting charge   27.99847, renormalised to   28.00000
     Starting wfcs are   18 randomized atomic wfcs
     Checking if some PAW data can be deallocated... 

     total cpu time spent up to now is        1.1 secs

     Self-consistent Calculation

     iteration #  1     ecut=    26.05 Ry     beta= 0.70
     Davidson diagonalization with overlap
     ethr =  1.00E-02,  avg # of iterations =  2.0

     Threshold (ethr) on eigenvalues was too large:
     Diagonalizing with lowered threshold

     Davidson diagonalization with overlap
     ethr =  1.76E-04,  avg # of iterations =  1.9

     total cpu time spent up to now is        1.8 secs

     total energy              =    -630.84808345 Ry
     Harris-Foulkes estimate   =    -630.86838815 Ry
     estimated scf accuracy    <       0.05483376 Ry

     iteration #  2     ecut=    26.05 Ry     beta= 0.70
     Davidson diagonalization with overlap
     ethr =  1.96E-04,  avg # of iterations =  2.0

     total cpu time spent up to now is        2.2 secs

     total energy              =    -630.85324164 Ry
     Harris-Foulkes estimate   =    -630.85453792 Ry
     estimated scf accuracy    <       0.00334854 Ry

     iteration #  3     ecut=    26.05 Ry     beta= 0.70
     Davidson diagonalization with overlap
     ethr =  1.20E-05,  avg # of iterations =  2.2

     total cpu time spent up to now is        2.7 secs

     total energy              =    -630.85397464 Ry
     Harris-Foulkes estimate   =    -630.85421130 Ry
     estimated scf accuracy    <       0.00040580 Ry

     iteration #  4     ecut=    26.05 Ry     beta= 0.70
     Davidson diagonalization with overlap
     ethr =  1.45E-06,  avg # of iterations =  2.1

     total cpu time spent up to now is        3.2 secs

     total energy              =    -630.85407271 Ry
     Harris-Foulkes estimate   =    -630.85406910 Ry
     estimated scf accuracy    <       0.00000684 Ry

     iteration #  5     ecut=    26.05 Ry     beta= 0.70
     Davidson diagonalization with overlap
     ethr =  2.44E-08,  avg # of iterations =  2.6

     total cpu time spent up to now is        3.6 secs

     total energy              =    -630.85407346 Ry
     Harris-Foulkes estimate   =    -630.85407344 Ry
     estimated scf accuracy    <       0.00000005 Ry

     iteration #  6     ecut=    26.05 Ry     beta= 0.70
     Davidson diagonalization with overlap
     ethr =  1.95E-10,  avg # of iterations =  3.0

     total cpu time spent up to now is        4.1 secs

     End of self-consistent calculation

          k = 0.0000 0.0000 0.0000 (   609 PWs)   bands (ev):

   -14.8926 -14.8926 -14.8926 -14.8848 -14.8848 -14.5788 -14.5788 -14.5788
   -14.4754 -14.4754  -3.4000  10.5275  10.5275  10.5275

          k =-0.1667 0.1667-0.1667 (   582 PWs)   bands (ev):

   -14.9017 -14.9017 -14.8912 -14.7797 -14.7797 -14.5195 -14.5195 -14.5123
   -14.4534 -14.4534  -3.0166   7.3286   9.9031   9.9031

          k =-0.3333 0.3333-0.3333 (   601 PWs)   bands (ev):

   -14.9544 -14.9544 -14.9102 -14.7760 -14.7760 -14.5704 -14.5597 -14.5597
   -14.4670 -14.4670  -1.9388   3.9688   9.1629   9.1629

          k = 0.5000-0.5000 0.5000 (   580 PWs)   bands (ev):

   -14.9245 -14.9245 -14.8479 -14.7450 -14.7450 -14.5198 -14.5198 -14.4655
   -14.4655 -14.4477  -0.9446   2.1864   8.8939   8.8939

          k = 0.0000 0.3333 0.0000 (   584 PWs)   bands (ev):

   -14.9121 -14.9121 -14.8796 -14.7986 -14.7737 -14.5777 -14.4857 -14.4717
   -14.4645 -14.4645  -2.8858   7.5489   8.9844   8.9844

          k =-0.1667 0.5000-0.1667 (   598 PWs)   bands (ev):

   -14.9567 -14.9527 -14.8853 -14.7565 -14.7336 -14.6294 -14.5597 -14.5335
   -14.4638 -14.4540  -2.0184   4.8823   7.9205   8.2834

          k = 0.6667-0.3333 0.6667 (   588 PWs)   bands (ev):

   -14.9525 -14.9404 -14.8337 -14.7249 -14.7230 -14.6017 -14.5507 -14.5255
   -14.4470 -14.4221  -0.7654   2.5233   6.9939   8.2190

          k = 0.5000-0.1667 0.5000 (   596 PWs)   bands (ev):

   -14.9674 -14.9494 -14.8631 -14.7424 -14.7206 -14.6051 -14.5752 -14.5605
   -14.4423 -14.4364  -1.1669   3.1677   6.7161   8.7954

          k = 0.3333 0.0000 0.3333 (   596 PWs)   bands (ev):

   -14.9483 -14.9404 -14.8908 -14.7720 -14.7454 -14.5910 -14.5529 -14.5139
   -14.5008 -14.4523  -2.3913   5.6902   7.5222   9.7225

          k = 0.0000 0.6667 0.0000 (   592 PWs)   bands (ev):

   -14.9398 -14.9398 -14.8507 -14.7585 -14.6842 -14.6610 -14.5384 -14.4777
   -14.4605 -14.4605  -1.3699   4.1297   7.4682   7.4682

          k = 0.8333-0.1667 0.8333 (   594 PWs)   bands (ev):

   -14.9655 -14.9576 -14.8158 -14.7204 -14.6982 -14.6216 -14.6198 -14.5334
   -14.4445 -14.4057  -0.1288   2.4100   6.1292   7.2910

          k = 0.6667-0.0000 0.6667 (   598 PWs)   bands (ev):

   -14.9699 -14.9667 -14.8256 -14.6831 -14.6797 -14.6613 -14.6360 -14.5800
   -14.4244 -14.4209   0.0586   2.2106   5.2860   7.8178

          k = 0.0000-1.0000 0.0000 (   588 PWs)   bands (ev):

   -14.9579 -14.9579 -14.7879 -14.7879 -14.6323 -14.6323 -14.5481 -14.5481
   -14.4102 -14.4102   1.0449   1.0449   6.9306   6.9306

          k = 0.6667-0.3333 1.0000 (   598 PWs)   bands (ev):

   -14.9699 -14.9586 -14.8449 -14.7349 -14.6818 -14.6653 -14.5879 -14.5562
   -14.4420 -14.4301  -0.9649   3.4455   6.1942   7.6462

          k = 0.5000-0.1667 0.8333 (   596 PWs)   bands (ev):

   -14.9601 -14.9549 -14.8128 -14.7129 -14.6667 -14.6651 -14.5996 -14.5623
   -14.4374 -14.4335   0.0676   2.1515   5.6890   7.1216

          k =-0.3333-1.0000 0.0000 (   600 PWs)   bands (ev):

   -14.9694 -14.9694 -14.7611 -14.7611 -14.6649 -14.6649 -14.6031 -14.6031
   -14.4364 -14.4364   1.1532   1.1532   6.1249   6.1249

     highest occupied level (ev):    10.5275

!    total energy              =    -630.85407347 Ry
     Harris-Foulkes estimate   =    -630.85407347 Ry
     estimated scf accuracy    <          3.1E-09 Ry

     total all-electron energy =     -8395.767335 Ry

     The total energy is the sum of the following terms:

     one-electron contribution =    -268.69203796 Ry
     hartree contribution      =     156.20547895 Ry
     xc contribution           =    -113.72658957 Ry
     ewald contribution        =    -207.02204251 Ry
     one-center paw contrib.   =    -197.61888239 Ry

     convergence has been achieved in   6 iterations

     Forces acting on atoms (cartesian axes, Ry/au):

     atom    1 type  1   force =    -0.00000000    0.00000000   -0.00000000
     atom    2 type  1   force =     0.00000000   -0.00000000    0.00000000

     Total force =     0.000000     Total SCF correction =     0.000000


     Computing stress (Cartesian axis) and pressure

          total   stress  (Ry/bohr**3)                   (kbar)     P= -638.51
  -0.00434054   0.00000000   0.00000000       -638.51      0.00      0.00
   0.00000000  -0.00434054   0.00000000          0.00   -638.51      0.00
   0.00000000  -0.00000000  -0.00434054          0.00     -0.00   -638.51


     Writing output data file germanium.save/
 
     init_run     :      0.45s CPU      0.46s WALL (       1 calls)
     electrons    :      2.94s CPU      2.96s WALL (       1 calls)
     forces       :      0.03s CPU      0.03s WALL (       1 calls)
     stress       :      0.08s CPU      0.08s WALL (       1 calls)

     Called by init_run:
     wfcinit      :      0.10s CPU      0.10s WALL (       1 calls)
     potinit      :      0.18s CPU      0.18s WALL (       1 calls)
     hinit0       :      0.16s CPU      0.17s WALL (       1 calls)

     Called by electrons:
     c_bands      :      1.58s CPU      1.59s WALL (       7 calls)
     sum_band     :      0.30s CPU      0.30s WALL (       7 calls)
     v_of_rho     :      0.03s CPU      0.02s WALL (       7 calls)
     newd         :      0.03s CPU      0.04s WALL (       7 calls)
     PAW_pot      :      1.18s CPU      1.18s WALL (       7 calls)
     mix_rho      :      0.00s CPU      0.00s WALL (       7 calls)

     Called by c_bands:
     init_us_2    :      0.02s CPU      0.03s WALL (     272 calls)
     cegterg      :      1.45s CPU      1.46s WALL (     112 calls)

     Called by sum_band:
     sum_band:bec :      0.00s CPU      0.00s WALL (     112 calls)
     addusdens    :      0.05s CPU      0.04s WALL (       7 calls)

     Called by *egterg:
     h_psi        :      1.22s CPU      1.24s WALL (     381 calls)
     s_psi        :      0.05s CPU      0.07s WALL (     381 calls)
     g_psi        :      0.00s CPU      0.00s WALL (     253 calls)
     cdiaghg      :      0.10s CPU      0.08s WALL (     349 calls)

     Called by h_psi:
     h_psi:pot    :      1.22s CPU      1.24s WALL (     381 calls)
     h_psi:calbec :      0.07s CPU      0.07s WALL (     381 calls)
     vloc_psi     :      1.10s CPU      1.10s WALL (     381 calls)
     add_vuspsi   :      0.05s CPU      0.07s WALL (     381 calls)

     General routines
     calbec       :      0.11s CPU      0.10s WALL (     573 calls)
     fft          :      0.01s CPU      0.01s WALL (     104 calls)
     ffts         :      0.00s CPU      0.00s WALL (       7 calls)
     fftw         :      1.25s CPU      1.24s WALL (   10164 calls)
 
     Parallel routines
 
     PWSCF        :     4.15s CPU         4.21s WALL

 
   This run was terminated on:  15:55: 2  10May2022            

=------------------------------------------------------------------------------=
   JOB DONE.
=------------------------------------------------------------------------------=
