
     Program PWSCF v.6.3MaX starts on 10May2022 at 15:55: 2 

     This program is part of the open-source Quantum ESPRESSO suite
     for quantum simulation of materials; please cite
         "P. Giannozzi et al., J. Phys.:Condens. Matter 21 395502 (2009);
         "P. Giannozzi et al., J. Phys.:Condens. Matter 29 465901 (2017);
          URL http://www.quantum-espresso.org", 
     in publications or presentations arising from this work. More details at
     http://www.quantum-espresso.org/quote

     Parallel version (MPI), running on     1 processors

     MPI processes distributed on     1 nodes
     Waiting for input...
     Reading input from standard input

     Current dimensions of program PWSCF are:
     Max number of different atomic species (ntypx) = 10
     Max number of k-points (npk) =  40000
     Max angular momentum in pseudopotentials (lmaxx) =  3
               file Ge.pbe-dn-kjpaw_psl.0.2.2.UPF: wavefunction(s)  4P 3D renormalized

     Subspace diagonalization in iterative solution of the eigenvalue problem:
     a serial algorithm will be used

 
     G-vector sticks info
     --------------------
     sticks:   dense  smooth     PW     G-vecs:    dense   smooth      PW
     Sum         397     397    121                 5161     5161     941
 


     bravais-lattice index     =            2
     lattice parameter (alat)  =      10.2000  a.u.
     unit-cell volume          =     265.3020 (a.u.)^3
     number of atoms/cell      =            2
     number of atomic types    =            1
     number of electrons       =        28.00
     number of Kohn-Sham states=           14
     kinetic-energy cutoff     =      27.6320  Ry
     charge density cutoff     =     110.5280  Ry
     convergence threshold     =      1.0E-08
     mixing beta               =       0.7000
     number of iterations used =            8  plain     mixing
     Exchange-correlation      = SLA PW PBX PBC ( 1  4  3  4 0 0)

     celldm(1)=  10.200000  celldm(2)=   0.000000  celldm(3)=   0.000000
     celldm(4)=   0.000000  celldm(5)=   0.000000  celldm(6)=   0.000000

     crystal axes: (cart. coord. in units of alat)
               a(1) = (  -0.500000   0.000000   0.500000 )  
               a(2) = (   0.000000   0.500000   0.500000 )  
               a(3) = (  -0.500000   0.500000   0.000000 )  

     reciprocal axes: (cart. coord. in units 2 pi/alat)
               b(1) = ( -1.000000 -1.000000  1.000000 )  
               b(2) = (  1.000000  1.000000  1.000000 )  
               b(3) = ( -1.000000  1.000000 -1.000000 )  


     PseudoPot. # 1 for Ge read from file:
     ../../PP/Ge.pbe-dn-kjpaw_psl.0.2.2.UPF
     MD5 check sum: acf6dd3aa1b4e03129ff8bf786ac0282
     Pseudo is Projector augmented-wave + core cor, Zval = 14.0
     Generated using "atomic" code by A. Dal Corso v.5.0.2 svn rev. 9415
     Shape of augmentation charge: PSQ
     Using radial grid of 1207 points,  6 beta functions with: 
                l(1) =   0
                l(2) =   0
                l(3) =   1
                l(4) =   1
                l(5) =   2
                l(6) =   2
     Q(r) pseudized with 0 coefficients 


     atomic species   valence    mass     pseudopotential
        Ge            14.00    28.08600     Ge( 1.00)

     24 Sym. Ops. (no inversion) found
          (note: 24 additional sym.ops. were found but ignored
           their fractional translations are incommensurate with FFT grid)


   Cartesian axes

     site n.     atom                  positions (alat units)
         1           Ge  tau(   1) = (   0.0000000   0.0000000   0.0000000  )
         2           Ge  tau(   2) = (  -0.2500000   0.2500000   0.2500000  )

     number of k points=    16
                       cart. coord. in units 2pi/alat
        k(    1) = (   0.0000000   0.0000000   0.0000000), wk =   0.0092593
        k(    2) = (  -0.1666667   0.1666667  -0.1666667), wk =   0.0740741
        k(    3) = (  -0.3333333   0.3333333  -0.3333333), wk =   0.0740741
        k(    4) = (   0.5000000  -0.5000000   0.5000000), wk =   0.0370370
        k(    5) = (   0.0000000   0.3333333   0.0000000), wk =   0.0555556
        k(    6) = (  -0.1666667   0.5000000  -0.1666667), wk =   0.2222222
        k(    7) = (   0.6666667  -0.3333333   0.6666667), wk =   0.2222222
        k(    8) = (   0.5000000  -0.1666667   0.5000000), wk =   0.2222222
        k(    9) = (   0.3333333   0.0000000   0.3333333), wk =   0.1111111
        k(   10) = (   0.0000000   0.6666667   0.0000000), wk =   0.0555556
        k(   11) = (   0.8333333  -0.1666667   0.8333333), wk =   0.2222222
        k(   12) = (   0.6666667  -0.0000000   0.6666667), wk =   0.1111111
        k(   13) = (   0.0000000  -1.0000000   0.0000000), wk =   0.0277778
        k(   14) = (   0.6666667  -0.3333333   1.0000000), wk =   0.2222222
        k(   15) = (   0.5000000  -0.1666667   0.8333333), wk =   0.2222222
        k(   16) = (  -0.3333333  -1.0000000   0.0000000), wk =   0.1111111

     Dense  grid:     5161 G-vectors     FFT dimensions: (  25,  25,  25)

     Estimated max dynamical RAM per process >      23.14 MB

     Check: negative/imaginary core charge=   -0.000239    0.000000

     Initial potential from superposition of free atoms

     starting charge   27.99847, renormalised to   28.00000
     Starting wfcs are   18 randomized atomic wfcs
     Checking if some PAW data can be deallocated... 

     total cpu time spent up to now is        1.2 secs

     Self-consistent Calculation

     iteration #  1     ecut=    27.63 Ry     beta= 0.70
     Davidson diagonalization with overlap
     ethr =  1.00E-02,  avg # of iterations =  2.0

     Threshold (ethr) on eigenvalues was too large:
     Diagonalizing with lowered threshold

     Davidson diagonalization with overlap
     ethr =  1.61E-04,  avg # of iterations =  1.9

     total cpu time spent up to now is        1.9 secs

     total energy              =    -630.95365248 Ry
     Harris-Foulkes estimate   =    -630.96839076 Ry
     estimated scf accuracy    <       0.04879802 Ry

     iteration #  2     ecut=    27.63 Ry     beta= 0.70
     Davidson diagonalization with overlap
     ethr =  1.74E-04,  avg # of iterations =  1.4

     total cpu time spent up to now is        2.4 secs

     total energy              =    -630.95669316 Ry
     Harris-Foulkes estimate   =    -630.95732532 Ry
     estimated scf accuracy    <       0.00269857 Ry

     iteration #  3     ecut=    27.63 Ry     beta= 0.70
     Davidson diagonalization with overlap
     ethr =  9.64E-06,  avg # of iterations =  2.5

     total cpu time spent up to now is        2.9 secs

     total energy              =    -630.95718965 Ry
     Harris-Foulkes estimate   =    -630.95735337 Ry
     estimated scf accuracy    <       0.00026592 Ry

     iteration #  4     ecut=    27.63 Ry     beta= 0.70
     Davidson diagonalization with overlap
     ethr =  9.50E-07,  avg # of iterations =  2.1

     total cpu time spent up to now is        3.5 secs

     total energy              =    -630.95725779 Ry
     Harris-Foulkes estimate   =    -630.95725567 Ry
     estimated scf accuracy    <       0.00000574 Ry

     iteration #  5     ecut=    27.63 Ry     beta= 0.70
     Davidson diagonalization with overlap
     ethr =  2.05E-08,  avg # of iterations =  2.4

     total cpu time spent up to now is        4.0 secs

     total energy              =    -630.95725849 Ry
     Harris-Foulkes estimate   =    -630.95725846 Ry
     estimated scf accuracy    <       0.00000012 Ry

     iteration #  6     ecut=    27.63 Ry     beta= 0.70
     Davidson diagonalization with overlap
     ethr =  4.16E-10,  avg # of iterations =  3.0

     total cpu time spent up to now is        4.5 secs

     End of self-consistent calculation

          k = 0.0000 0.0000 0.0000 (   645 PWs)   bands (ev):

   -14.7446 -14.7446 -14.7446 -14.6786 -14.6786 -14.3707 -14.3707 -14.3707
   -14.3634 -14.3634  -3.3940  10.5354  10.5354  10.5354

          k =-0.1667 0.1667-0.1667 (   649 PWs)   bands (ev):

   -14.7628 -14.7628 -14.7436 -14.6603 -14.6603 -14.4029 -14.4021 -14.4021
   -14.3321 -14.3321  -3.0104   7.3383   9.9101   9.9101

          k =-0.3333 0.3333-0.3333 (   646 PWs)   bands (ev):

   -14.7877 -14.7877 -14.7315 -14.6091 -14.6091 -14.4158 -14.4158 -14.3822
   -14.3376 -14.3376  -1.9319   3.9773   9.1687   9.1687

          k = 0.5000-0.5000 0.5000 (   652 PWs)   bands (ev):

   -14.8014 -14.8014 -14.7352 -14.5854 -14.5854 -14.4611 -14.4304 -14.4304
   -14.3094 -14.3094  -0.9375   2.1939   8.8990   8.8990

          k = 0.0000 0.3333 0.0000 (   653 PWs)   bands (ev):

   -14.7699 -14.7699 -14.7482 -14.6765 -14.6065 -14.4495 -14.3916 -14.3916
   -14.3612 -14.3210  -2.8795   7.5595   8.9912   8.9912

          k =-0.1667 0.5000-0.1667 (   642 PWs)   bands (ev):

   -14.7893 -14.7853 -14.7283 -14.6263 -14.5656 -14.4806 -14.4003 -14.3675
   -14.3308 -14.3064  -2.0117   4.8914   7.9286   8.2893

          k = 0.6667-0.3333 0.6667 (   654 PWs)   bands (ev):

   -14.8160 -14.8039 -14.7047 -14.5922 -14.5801 -14.4919 -14.4346 -14.4207
   -14.3158 -14.3072  -0.7582   2.5311   7.0020   8.2243

          k = 0.5000-0.1667 0.5000 (   647 PWs)   bands (ev):

   -14.8079 -14.7952 -14.6946 -14.5955 -14.5624 -14.4572 -14.4550 -14.4098
   -14.3223 -14.3138  -1.1598   3.1759   6.7241   8.8010

          k = 0.3333 0.0000 0.3333 (   644 PWs)   bands (ev):

   -14.7860 -14.7842 -14.7273 -14.6399 -14.5947 -14.4385 -14.4181 -14.3804
   -14.3236 -14.3188  -2.3847   5.6996   7.5301   9.7287

          k = 0.0000 0.6667 0.0000 (   644 PWs)   bands (ev):

   -14.7959 -14.7959 -14.7270 -14.6100 -14.5481 -14.5142 -14.4256 -14.3429
   -14.3176 -14.3176  -1.3630   4.1389   7.4736   7.4736

          k = 0.8333-0.1667 0.8333 (   660 PWs)   bands (ev):

   -14.8204 -14.8133 -14.6834 -14.5851 -14.5640 -14.5091 -14.4809 -14.4181
   -14.3295 -14.3124  -0.1214   2.4183   6.1362   7.2961

          k = 0.6667-0.0000 0.6667 (   650 PWs)   bands (ev):

   -14.8238 -14.8065 -14.6546 -14.5543 -14.5386 -14.5315 -14.5011 -14.3937
   -14.3243 -14.2927   0.0661   2.2188   5.2937   7.8231

          k = 0.0000-1.0000 0.0000 (   636 PWs)   bands (ev):

   -14.7982 -14.7982 -14.6269 -14.6266 -14.4993 -14.4989 -14.4117 -14.4116
   -14.3171 -14.3171   1.0527   1.0527   6.9354   6.9354

          k = 0.6667-0.3333 1.0000 (   656 PWs)   bands (ev):

   -14.8186 -14.8053 -14.6950 -14.5990 -14.5401 -14.5333 -14.4461 -14.4212
   -14.3185 -14.3181  -0.9578   3.4541   6.2016   7.6529

          k = 0.5000-0.1667 0.8333 (   656 PWs)   bands (ev):

   -14.8281 -14.8170 -14.6530 -14.5621 -14.5484 -14.5378 -14.4855 -14.4368
   -14.3112 -14.3015   0.0751   2.1595   5.6967   7.1283

          k =-0.3333-1.0000 0.0000 (   654 PWs)   bands (ev):

   -14.8186 -14.8186 -14.6156 -14.6151 -14.5187 -14.5182 -14.4731 -14.4730
   -14.3034 -14.3034   1.1610   1.1611   6.1316   6.1322

     highest occupied level (ev):    10.5354

!    total energy              =    -630.95725852 Ry
     Harris-Foulkes estimate   =    -630.95725852 Ry
     estimated scf accuracy    <          8.0E-09 Ry

     total all-electron energy =     -8395.870520 Ry

     The total energy is the sum of the following terms:

     one-electron contribution =    -269.01972780 Ry
     hartree contribution      =     156.48539918 Ry
     xc contribution           =    -113.80377033 Ry
     ewald contribution        =    -207.02204252 Ry
     one-center paw contrib.   =    -197.59711703 Ry

     convergence has been achieved in   6 iterations

     Forces acting on atoms (cartesian axes, Ry/au):

     atom    1 type  1   force =     0.00000000   -0.00000000    0.00000000
     atom    2 type  1   force =    -0.00000000    0.00000000   -0.00000000

     Total force =     0.000000     Total SCF correction =     0.000000


     Computing stress (Cartesian axis) and pressure

          total   stress  (Ry/bohr**3)                   (kbar)     P= -280.44
  -0.00190642   0.00000000   0.00000000       -280.44      0.00      0.00
   0.00000000  -0.00190642   0.00000000          0.00   -280.44      0.00
   0.00000000   0.00000000  -0.00190642          0.00      0.00   -280.44


     Writing output data file germanium.save/
 
     init_run     :      0.47s CPU      0.49s WALL (       1 calls)
     electrons    :      3.38s CPU      3.39s WALL (       1 calls)
     forces       :      0.03s CPU      0.03s WALL (       1 calls)
     stress       :      0.08s CPU      0.08s WALL (       1 calls)

     Called by init_run:
     wfcinit      :      0.13s CPU      0.13s WALL (       1 calls)
     potinit      :      0.16s CPU      0.18s WALL (       1 calls)
     hinit0       :      0.17s CPU      0.17s WALL (       1 calls)

     Called by electrons:
     c_bands      :      1.94s CPU      1.95s WALL (       7 calls)
     sum_band     :      0.37s CPU      0.37s WALL (       7 calls)
     v_of_rho     :      0.03s CPU      0.03s WALL (       7 calls)
     newd         :      0.04s CPU      0.04s WALL (       7 calls)
     PAW_pot      :      1.16s CPU      1.18s WALL (       7 calls)
     mix_rho      :      0.00s CPU      0.00s WALL (       7 calls)

     Called by c_bands:
     init_us_2    :      0.03s CPU      0.03s WALL (     272 calls)
     cegterg      :      1.82s CPU      1.81s WALL (     112 calls)

     Called by sum_band:
     sum_band:bec :      0.00s CPU      0.00s WALL (     112 calls)
     addusdens    :      0.04s CPU      0.05s WALL (       7 calls)

     Called by *egterg:
     h_psi        :      1.62s CPU      1.60s WALL (     373 calls)
     s_psi        :      0.06s CPU      0.07s WALL (     373 calls)
     g_psi        :      0.00s CPU      0.00s WALL (     245 calls)
     cdiaghg      :      0.09s CPU      0.08s WALL (     341 calls)

     Called by h_psi:
     h_psi:pot    :      1.62s CPU      1.60s WALL (     373 calls)
     h_psi:calbec :      0.05s CPU      0.07s WALL (     373 calls)
     vloc_psi     :      1.50s CPU      1.46s WALL (     373 calls)
     add_vuspsi   :      0.06s CPU      0.07s WALL (     373 calls)

     General routines
     calbec       :      0.09s CPU      0.11s WALL (     565 calls)
     fft          :      0.02s CPU      0.02s WALL (     104 calls)
     ffts         :      0.00s CPU      0.00s WALL (       7 calls)
     fftw         :      1.68s CPU      1.66s WALL (    9964 calls)
 
     Parallel routines
 
     PWSCF        :     4.63s CPU         4.70s WALL

 
   This run was terminated on:  15:55: 6  10May2022            

=------------------------------------------------------------------------------=
   JOB DONE.
=------------------------------------------------------------------------------=
