
     Program PWSCF v.6.3MaX starts on 10May2022 at 15:55:29 

     This program is part of the open-source Quantum ESPRESSO suite
     for quantum simulation of materials; please cite
         "P. Giannozzi et al., J. Phys.:Condens. Matter 21 395502 (2009);
         "P. Giannozzi et al., J. Phys.:Condens. Matter 29 465901 (2017);
          URL http://www.quantum-espresso.org", 
     in publications or presentations arising from this work. More details at
     http://www.quantum-espresso.org/quote

     Parallel version (MPI), running on     1 processors

     MPI processes distributed on     1 nodes
     Waiting for input...
     Reading input from standard input

     Current dimensions of program PWSCF are:
     Max number of different atomic species (ntypx) = 10
     Max number of k-points (npk) =  40000
     Max angular momentum in pseudopotentials (lmaxx) =  3
               file Ge.pbe-dn-kjpaw_psl.0.2.2.UPF: wavefunction(s)  4P 3D renormalized

     Subspace diagonalization in iterative solution of the eigenvalue problem:
     a serial algorithm will be used

 
     G-vector sticks info
     --------------------
     sticks:   dense  smooth     PW     G-vecs:    dense   smooth      PW
     Sum         511     511    163                 7631     7631    1363
 


     bravais-lattice index     =            2
     lattice parameter (alat)  =      10.2000  a.u.
     unit-cell volume          =     265.3020 (a.u.)^3
     number of atoms/cell      =            2
     number of atomic types    =            1
     number of electrons       =        28.00
     number of Kohn-Sham states=           14
     kinetic-energy cutoff     =      35.5260  Ry
     charge density cutoff     =     142.1040  Ry
     convergence threshold     =      1.0E-08
     mixing beta               =       0.7000
     number of iterations used =            8  plain     mixing
     Exchange-correlation      = SLA PW PBX PBC ( 1  4  3  4 0 0)

     celldm(1)=  10.200000  celldm(2)=   0.000000  celldm(3)=   0.000000
     celldm(4)=   0.000000  celldm(5)=   0.000000  celldm(6)=   0.000000

     crystal axes: (cart. coord. in units of alat)
               a(1) = (  -0.500000   0.000000   0.500000 )  
               a(2) = (   0.000000   0.500000   0.500000 )  
               a(3) = (  -0.500000   0.500000   0.000000 )  

     reciprocal axes: (cart. coord. in units 2 pi/alat)
               b(1) = ( -1.000000 -1.000000  1.000000 )  
               b(2) = (  1.000000  1.000000  1.000000 )  
               b(3) = ( -1.000000  1.000000 -1.000000 )  


     PseudoPot. # 1 for Ge read from file:
     ../../PP/Ge.pbe-dn-kjpaw_psl.0.2.2.UPF
     MD5 check sum: acf6dd3aa1b4e03129ff8bf786ac0282
     Pseudo is Projector augmented-wave + core cor, Zval = 14.0
     Generated using "atomic" code by A. Dal Corso v.5.0.2 svn rev. 9415
     Shape of augmentation charge: PSQ
     Using radial grid of 1207 points,  6 beta functions with: 
                l(1) =   0
                l(2) =   0
                l(3) =   1
                l(4) =   1
                l(5) =   2
                l(6) =   2
     Q(r) pseudized with 0 coefficients 


     atomic species   valence    mass     pseudopotential
        Ge            14.00    28.08600     Ge( 1.00)

     24 Sym. Ops. (no inversion) found
          (note: 24 additional sym.ops. were found but ignored
           their fractional translations are incommensurate with FFT grid)


   Cartesian axes

     site n.     atom                  positions (alat units)
         1           Ge  tau(   1) = (   0.0000000   0.0000000   0.0000000  )
         2           Ge  tau(   2) = (  -0.2500000   0.2500000   0.2500000  )

     number of k points=    16
                       cart. coord. in units 2pi/alat
        k(    1) = (   0.0000000   0.0000000   0.0000000), wk =   0.0092593
        k(    2) = (  -0.1666667   0.1666667  -0.1666667), wk =   0.0740741
        k(    3) = (  -0.3333333   0.3333333  -0.3333333), wk =   0.0740741
        k(    4) = (   0.5000000  -0.5000000   0.5000000), wk =   0.0370370
        k(    5) = (   0.0000000   0.3333333   0.0000000), wk =   0.0555556
        k(    6) = (  -0.1666667   0.5000000  -0.1666667), wk =   0.2222222
        k(    7) = (   0.6666667  -0.3333333   0.6666667), wk =   0.2222222
        k(    8) = (   0.5000000  -0.1666667   0.5000000), wk =   0.2222222
        k(    9) = (   0.3333333   0.0000000   0.3333333), wk =   0.1111111
        k(   10) = (   0.0000000   0.6666667   0.0000000), wk =   0.0555556
        k(   11) = (   0.8333333  -0.1666667   0.8333333), wk =   0.2222222
        k(   12) = (   0.6666667  -0.0000000   0.6666667), wk =   0.1111111
        k(   13) = (   0.0000000  -1.0000000   0.0000000), wk =   0.0277778
        k(   14) = (   0.6666667  -0.3333333   1.0000000), wk =   0.2222222
        k(   15) = (   0.5000000  -0.1666667   0.8333333), wk =   0.2222222
        k(   16) = (  -0.3333333  -1.0000000   0.0000000), wk =   0.1111111

     Dense  grid:     7631 G-vectors     FFT dimensions: (  27,  27,  27)

     Estimated max dynamical RAM per process >      33.45 MB

     Check: negative/imaginary core charge=   -0.000149    0.000000

     Initial potential from superposition of free atoms

     starting charge   27.99847, renormalised to   28.00000
     Starting wfcs are   18 randomized atomic wfcs
     Checking if some PAW data can be deallocated... 

     total cpu time spent up to now is        1.2 secs

     Self-consistent Calculation

     iteration #  1     ecut=    35.53 Ry     beta= 0.70
     Davidson diagonalization with overlap
     ethr =  1.00E-02,  avg # of iterations =  2.0

     Threshold (ethr) on eigenvalues was too large:
     Diagonalizing with lowered threshold

     Davidson diagonalization with overlap
     ethr =  1.52E-04,  avg # of iterations =  1.9

     total cpu time spent up to now is        2.2 secs

     total energy              =    -631.05017559 Ry
     Harris-Foulkes estimate   =    -631.05975166 Ry
     estimated scf accuracy    <       0.04342123 Ry

     iteration #  2     ecut=    35.53 Ry     beta= 0.70
     Davidson diagonalization with overlap
     ethr =  1.55E-04,  avg # of iterations =  1.2

     total cpu time spent up to now is        2.7 secs

     total energy              =    -631.05149395 Ry
     Harris-Foulkes estimate   =    -631.05161920 Ry
     estimated scf accuracy    <       0.00219449 Ry

     iteration #  3     ecut=    35.53 Ry     beta= 0.70
     Davidson diagonalization with overlap
     ethr =  7.84E-06,  avg # of iterations =  2.2

     total cpu time spent up to now is        3.3 secs

     total energy              =    -631.05168873 Ry
     Harris-Foulkes estimate   =    -631.05173506 Ry
     estimated scf accuracy    <       0.00008139 Ry

     iteration #  4     ecut=    35.53 Ry     beta= 0.70
     Davidson diagonalization with overlap
     ethr =  2.91E-07,  avg # of iterations =  2.2

     total cpu time spent up to now is        4.1 secs

     total energy              =    -631.05172236 Ry
     Harris-Foulkes estimate   =    -631.05172527 Ry
     estimated scf accuracy    <       0.00000951 Ry

     iteration #  5     ecut=    35.53 Ry     beta= 0.70
     Davidson diagonalization with overlap
     ethr =  3.40E-08,  avg # of iterations =  2.1

     total cpu time spent up to now is        4.7 secs

     total energy              =    -631.05172391 Ry
     Harris-Foulkes estimate   =    -631.05172395 Ry
     estimated scf accuracy    <       0.00000025 Ry

     iteration #  6     ecut=    35.53 Ry     beta= 0.70
     Davidson diagonalization with overlap
     ethr =  8.99E-10,  avg # of iterations =  2.9

     total cpu time spent up to now is        5.4 secs

     total energy              =    -631.05172396 Ry
     Harris-Foulkes estimate   =    -631.05172397 Ry
     estimated scf accuracy    <       0.00000002 Ry

     iteration #  7     ecut=    35.53 Ry     beta= 0.70
     Davidson diagonalization with overlap
     ethr =  6.24E-11,  avg # of iterations =  2.3

     total cpu time spent up to now is        6.0 secs

     End of self-consistent calculation

          k = 0.0000 0.0000 0.0000 (   941 PWs)   bands (ev):

   -14.5486 -14.5486 -14.5486 -14.4956 -14.4956 -14.1991 -14.1991 -14.1991
   -14.1641 -14.1641  -3.4084  10.5289  10.5289  10.5289

          k =-0.1667 0.1667-0.1667 (   941 PWs)   bands (ev):

   -14.5656 -14.5656 -14.5427 -14.4698 -14.4698 -14.2169 -14.2169 -14.2061
   -14.1501 -14.1501  -3.0244   7.3311   9.9016   9.9016

          k =-0.3333 0.3333-0.3333 (   938 PWs)   bands (ev):

   -14.5790 -14.5790 -14.5304 -14.4425 -14.4425 -14.2329 -14.2329 -14.2208
   -14.1384 -14.1384  -1.9443   3.9662   9.1581   9.1581

          k = 0.5000-0.5000 0.5000 (   960 PWs)   bands (ev):

   -14.5820 -14.5820 -14.5246 -14.4357 -14.4357 -14.2351 -14.2351 -14.2287
   -14.1359 -14.1359  -0.9472   2.1795   8.8878   8.8878

          k = 0.0000 0.3333 0.0000 (   950 PWs)   bands (ev):

   -14.5632 -14.5614 -14.5614 -14.4720 -14.4410 -14.2691 -14.1852 -14.1769
   -14.1769 -14.1444  -2.8935   7.5558   8.9806   8.9806

          k =-0.1667 0.5000-0.1667 (   942 PWs)   bands (ev):

   -14.5908 -14.5751 -14.5346 -14.4420 -14.4040 -14.3052 -14.2179 -14.1914
   -14.1494 -14.1265  -2.0246   4.8835   7.9173   8.2770

          k = 0.6667-0.3333 0.6667 (   942 PWs)   bands (ev):

   -14.6062 -14.5865 -14.5013 -14.4147 -14.4037 -14.2959 -14.2500 -14.2282
   -14.1295 -14.1103  -0.7684   2.5190   6.9897   8.2117

          k = 0.5000-0.1667 0.5000 (   945 PWs)   bands (ev):

   -14.6010 -14.5924 -14.4948 -14.4331 -14.4031 -14.2721 -14.2577 -14.2355
   -14.1206 -14.1191  -1.1710   3.1652   6.7109   8.7895

          k = 0.3333 0.0000 0.3333 (   941 PWs)   bands (ev):

   -14.5856 -14.5777 -14.5257 -14.4569 -14.4299 -14.2562 -14.2396 -14.1904
   -14.1536 -14.1272  -2.3980   5.6927   7.5169   9.7196

          k = 0.0000 0.6667 0.0000 (   950 PWs)   bands (ev):

   -14.5837 -14.5837 -14.5453 -14.4089 -14.3778 -14.3446 -14.2433 -14.1706
   -14.1355 -14.1355  -1.3753   4.1327   7.4594   7.4594

          k = 0.8333-0.1667 0.8333 (   956 PWs)   bands (ev):

   -14.6093 -14.5924 -14.4967 -14.4039 -14.3706 -14.3159 -14.2841 -14.2249
   -14.1199 -14.1044  -0.1319   2.4101   6.1202   7.2815

          k = 0.6667-0.0000 0.6667 (   955 PWs)   bands (ev):

   -14.6217 -14.5972 -14.4736 -14.3683 -14.3559 -14.3433 -14.3085 -14.2469
   -14.1139 -14.0929   0.0567   2.2098   5.2765   7.8096

          k = 0.0000-1.0000 0.0000 (   950 PWs)   bands (ev):

   -14.5939 -14.5939 -14.4793 -14.4791 -14.3249 -14.3246 -14.2457 -14.2454
   -14.1160 -14.1160   1.0432   1.0432   6.9199   6.9199

          k = 0.6667-0.3333 1.0000 (   947 PWs)   bands (ev):

   -14.6032 -14.5996 -14.4941 -14.4123 -14.3621 -14.3444 -14.2504 -14.2311
   -14.1148 -14.1146  -0.9691   3.4465   6.1862   7.6395

          k = 0.5000-0.1667 0.8333 (   942 PWs)   bands (ev):

   -14.6180 -14.6030 -14.4628 -14.3871 -14.3528 -14.3456 -14.2915 -14.2544
   -14.1098 -14.0962   0.0658   2.1498   5.6809   7.1137

          k =-0.3333-1.0000 0.0000 (   956 PWs)   bands (ev):

   -14.6111 -14.6111 -14.4346 -14.4343 -14.3320 -14.3319 -14.2813 -14.2811
   -14.1011 -14.1011   1.1521   1.1522   6.1154   6.1159

     highest occupied level (ev):    10.5289

!    total energy              =    -631.05172396 Ry
     Harris-Foulkes estimate   =    -631.05172396 Ry
     estimated scf accuracy    <          9.4E-10 Ry

     total all-electron energy =     -8395.964985 Ry

     The total energy is the sum of the following terms:

     one-electron contribution =    -269.39004505 Ry
     hartree contribution      =     156.83141496 Ry
     xc contribution           =    -113.90224895 Ry
     ewald contribution        =    -207.02204250 Ry
     one-center paw contrib.   =    -197.56880243 Ry

     convergence has been achieved in   7 iterations

     Forces acting on atoms (cartesian axes, Ry/au):

     atom    1 type  1   force =    -0.00000000   -0.00000000   -0.00000000
     atom    2 type  1   force =    -0.00000000   -0.00000000   -0.00000000

     Total force =     0.000000     Total SCF correction =     0.000000


     Computing stress (Cartesian axis) and pressure

          total   stress  (Ry/bohr**3)                   (kbar)     P=  201.52
   0.00136994  -0.00000000   0.00000000        201.52     -0.00      0.00
   0.00000000   0.00136994  -0.00000000          0.00    201.52     -0.00
   0.00000000   0.00000000   0.00136994          0.00      0.00    201.52


     Writing output data file germanium.save/
 
     init_run     :      0.54s CPU      0.56s WALL (       1 calls)
     electrons    :      4.77s CPU      4.79s WALL (       1 calls)
     forces       :      0.04s CPU      0.05s WALL (       1 calls)
     stress       :      0.12s CPU      0.12s WALL (       1 calls)

     Called by init_run:
     wfcinit      :      0.17s CPU      0.17s WALL (       1 calls)
     potinit      :      0.17s CPU      0.18s WALL (       1 calls)
     hinit0       :      0.19s CPU      0.19s WALL (       1 calls)

     Called by electrons:
     c_bands      :      2.94s CPU      2.95s WALL (       8 calls)
     sum_band     :      0.56s CPU      0.57s WALL (       8 calls)
     v_of_rho     :      0.03s CPU      0.04s WALL (       8 calls)
     newd         :      0.06s CPU      0.07s WALL (       8 calls)
     PAW_pot      :      1.34s CPU      1.34s WALL (       8 calls)
     mix_rho      :      0.00s CPU      0.00s WALL (       8 calls)

     Called by c_bands:
     init_us_2    :      0.03s CPU      0.05s WALL (     304 calls)
     cegterg      :      2.71s CPU      2.72s WALL (     128 calls)

     Called by sum_band:
     sum_band:bec :      0.00s CPU      0.00s WALL (     128 calls)
     addusdens    :      0.08s CPU      0.08s WALL (       8 calls)

     Called by *egterg:
     h_psi        :      2.40s CPU      2.40s WALL (     413 calls)
     s_psi        :      0.09s CPU      0.11s WALL (     413 calls)
     g_psi        :      0.01s CPU      0.01s WALL (     269 calls)
     cdiaghg      :      0.07s CPU      0.08s WALL (     381 calls)

     Called by h_psi:
     h_psi:pot    :      2.40s CPU      2.39s WALL (     413 calls)
     h_psi:calbec :      0.12s CPU      0.11s WALL (     413 calls)
     vloc_psi     :      2.16s CPU      2.17s WALL (     413 calls)
     add_vuspsi   :      0.12s CPU      0.11s WALL (     413 calls)

     General routines
     calbec       :      0.20s CPU      0.18s WALL (     621 calls)
     fft          :      0.02s CPU      0.03s WALL (     115 calls)
     ffts         :      0.00s CPU      0.00s WALL (       8 calls)
     fftw         :      2.45s CPU      2.47s WALL (   11086 calls)
 
     Parallel routines
 
     PWSCF        :     6.12s CPU         6.21s WALL

 
   This run was terminated on:  15:55:35  10May2022            

=------------------------------------------------------------------------------=
   JOB DONE.
=------------------------------------------------------------------------------=
