
     Program PHONON v.6.3MaX starts on 11May2022 at 12:58:28 

     This program is part of the open-source Quantum ESPRESSO suite
     for quantum simulation of materials; please cite
         "P. Giannozzi et al., J. Phys.:Condens. Matter 21 395502 (2009);
         "P. Giannozzi et al., J. Phys.:Condens. Matter 29 465901 (2017);
          URL http://www.quantum-espresso.org", 
     in publications or presentations arising from this work. More details at
     http://www.quantum-espresso.org/quote

     Parallel version (MPI), running on    12 processors

     MPI processes distributed on     1 nodes
     R & G space division:  proc/nbgrp/npool/nimage =      12

     Reading data from directory:
     calc/germanium.save/

     IMPORTANT: XC functional enforced from input :
     Exchange-correlation      = PBE ( 1  4  3  4 0 0)
     Any further DFT definition will be discarded
     Please, verify this is what you really want

               file Ge.pbe-dn-kjpaw_psl.0.2.2.UPF: wavefunction(s)  4P 3D renormalized
 
     Parallelization info
     --------------------
     sticks:   dense  smooth     PW     G-vecs:    dense   smooth      PW
     Min          48      48     15                  779      779     135
     Max          49      49     16                  783      783     137
     Sum         583     583    187                 9377     9377    1639
 

     Check: negative/imaginary core charge=   -0.000149    0.000000


     Dynamical matrices for ( 8, 8, 8)  uniform grid of q-points
     (  29 q-points):
       N         xq(1)         xq(2)         xq(3) 
       1   0.000000000   0.000000000   0.000000000
       2  -0.125000000   0.125000000  -0.125000000
       3  -0.250000000   0.250000000  -0.250000000
       4  -0.375000000   0.375000000  -0.375000000
       5   0.500000000  -0.500000000   0.500000000
       6   0.000000000   0.250000000   0.000000000
       7  -0.125000000   0.375000000  -0.125000000
       8  -0.250000000   0.500000000  -0.250000000
       9   0.625000000  -0.375000000   0.625000000
      10   0.500000000  -0.250000000   0.500000000
      11   0.375000000  -0.125000000   0.375000000
      12   0.250000000   0.000000000   0.250000000
      13   0.000000000   0.500000000   0.000000000
      14  -0.125000000   0.625000000  -0.125000000
      15   0.750000000  -0.250000000   0.750000000
      16   0.625000000  -0.125000000   0.625000000
      17   0.500000000   0.000000000   0.500000000
      18   0.000000000   0.750000000   0.000000000
      19   0.875000000  -0.125000000   0.875000000
      20   0.750000000   0.000000000   0.750000000
      21   0.000000000  -1.000000000   0.000000000
      22  -0.250000000   0.500000000   0.000000000
      23   0.625000000  -0.375000000   0.875000000
      24   0.500000000  -0.250000000   0.750000000
      25   0.750000000  -0.250000000   1.000000000
      26   0.625000000  -0.125000000   0.875000000
      27   0.500000000   0.000000000   0.750000000
      28  -0.250000000  -1.000000000   0.000000000
      29  -0.500000000  -1.000000000   0.000000000

     Calculation of q =    0.0000000   0.0000000   0.0000000

     YOU NEED TO PUT HERE SOME TITLE :)                                         

     bravais-lattice index     =            2
     lattice parameter (alat)  =      11.0000  a.u.
     unit-cell volume          =     332.7500 (a.u.)^3
     number of atoms/cell      =            2
     number of atomic types    =            1
     kinetic-energy cut-off    =      35.0000  Ry
     charge density cut-off    =     140.0000  Ry
     convergence threshold     =      5.0E-14
     beta                      =       0.7000
     number of iterations used =            4
     Exchange-correlation      = PBE ( 1  4  3  4 0 0)


     celldm(1)=   11.00000  celldm(2)=    0.00000  celldm(3)=    0.00000
     celldm(4)=    0.00000  celldm(5)=    0.00000  celldm(6)=    0.00000

     crystal axes: (cart. coord. in units of alat)
               a(1) = ( -0.5000  0.0000  0.5000 )  
               a(2) = (  0.0000  0.5000  0.5000 )  
               a(3) = ( -0.5000  0.5000  0.0000 )  

     reciprocal axes: (cart. coord. in units 2 pi/alat)
               b(1) = ( -1.0000 -1.0000  1.0000 )  
               b(2) = (  1.0000  1.0000  1.0000 )  
               b(3) = ( -1.0000  1.0000 -1.0000 )  


     Atoms inside the unit cell: 

     Cartesian axes

     site n.  atom      mass           positions (alat units)
        1     Ge  72.6400   tau(    1) = (    0.00000    0.00000    0.00000  )
        2     Ge  72.6400   tau(    2) = (   -0.25000    0.25000    0.25000  )

     Computing dynamical matrix for 
                    q = (   0.0000000   0.0000000   0.0000000 )
 
     25 Sym.Ops. (with q -> -q+G )


     G cutoff =  429.0952  (    780 G-vectors)     FFT grid: ( 30, 30, 30)
     number of k points=    16

     PseudoPot. # 1 for Ge read from file:
     ../PP/Ge.pbe-dn-kjpaw_psl.0.2.2.UPF
     MD5 check sum: acf6dd3aa1b4e03129ff8bf786ac0282
     Pseudo is Projector augmented-wave + core cor, Zval = 14.0
     Generated using "atomic" code by A. Dal Corso v.5.0.2 svn rev. 9415
     Shape of augmentation charge: PSQ
     Using radial grid of 1207 points,  6 beta functions with: 
                l(1) =   0
                l(2) =   0
                l(3) =   1
                l(4) =   1
                l(5) =   2
                l(6) =   2
     Q(r) pseudized with 0 coefficients 


     Mode symmetry, T_d (-43m)  point group:


     Electric field:
     Dielectric constant
     Born effective charges in two ways 


     Atomic displacements:
     There are   2 irreducible representations

     Representation     1      3 modes -T_2  G_15 P_4  To be done

     Representation     2      3 modes -T_2  G_15 P_4  To be done



     Alpha used in Ewald sum =   1.3000
     PHONON       :     1.48s CPU         1.51s WALL


     Electric Fields Calculation

      iter #   1 total cpu time :     3.8 secs   av.it.:   5.2
      thresh= 1.000E-02 alpha_mix =  0.700 |ddv_scf|^2 =  2.721E+00

      iter #   2 total cpu time :     5.2 secs   av.it.:  13.3
      thresh= 1.000E-02 alpha_mix =  0.700 |ddv_scf|^2 =  7.253E+05

      iter #   3 total cpu time :     6.7 secs   av.it.:  13.3
      thresh= 1.000E-02 alpha_mix =  0.700 |ddv_scf|^2 =  1.687E+03

      iter #   4 total cpu time :     7.9 secs   av.it.:  10.6
      thresh= 1.000E-02 alpha_mix =  0.700 |ddv_scf|^2 =  4.303E+00

      iter #   5 total cpu time :     9.0 secs   av.it.:   9.6
      thresh= 1.000E-02 alpha_mix =  0.700 |ddv_scf|^2 =  3.219E-01

      iter #   6 total cpu time :    10.1 secs   av.it.:   9.1
      thresh= 1.000E-02 alpha_mix =  0.700 |ddv_scf|^2 =  3.763E-02

      iter #   7 total cpu time :    11.2 secs   av.it.:   6.0
      thresh= 1.000E-02 alpha_mix =  0.700 |ddv_scf|^2 =  1.014E-03

      iter #   8 total cpu time :    12.0 secs   av.it.:   4.9
      thresh= 3.184E-03 alpha_mix =  0.700 |ddv_scf|^2 =  4.313E-07

      iter #   9 total cpu time :    12.9 secs   av.it.:   6.2
      thresh= 6.568E-05 alpha_mix =  0.700 |ddv_scf|^2 =  6.524E-10

      iter #  10 total cpu time :    13.8 secs   av.it.:   5.5
      thresh= 2.554E-06 alpha_mix =  0.700 |ddv_scf|^2 =  1.220E-10

      iter #  11 total cpu time :    14.7 secs   av.it.:   6.1
      thresh= 1.105E-06 alpha_mix =  0.700 |ddv_scf|^2 =  1.345E-11

      iter #  12 total cpu time :    15.6 secs   av.it.:   5.2
      thresh= 3.668E-07 alpha_mix =  0.700 |ddv_scf|^2 =  1.620E-14

     End of electric fields calculation

          Dielectric constant in cartesian axis 

          (   49302.980938733      -0.000000000       0.000000000 )
          (       0.000000000   49302.980938733       0.000000000 )
          (       0.000000000      -0.000000000   49302.980938733 )

          Effective charges (d Force / dE) in cartesian axis

           atom      1   Ge 
      Ex  (       20.76485       -0.00000        0.00000 )
      Ey  (        0.00000       20.76485       -0.00000 )
      Ez  (       -0.00000       -0.00000       20.76485 )
           atom      2   Ge 
      Ex  (      -21.66847        0.00000       -0.00000 )
      Ey  (        0.00000      -21.66847       -0.00000 )
      Ez  (       -0.00000       -0.00000      -21.66847 )


     Representation #  1 modes #   1  2  3

     Self-consistent Calculation

      iter #   1 total cpu time :    17.3 secs   av.it.:   7.7
      thresh= 1.000E-02 alpha_mix =  0.700 |ddv_scf|^2 =  4.474E-01

      iter #   2 total cpu time :    18.6 secs   av.it.:  12.7
      thresh= 1.000E-02 alpha_mix =  0.700 |ddv_scf|^2 =  1.224E+05

      iter #   3 total cpu time :    20.0 secs   av.it.:  12.6
      thresh= 1.000E-02 alpha_mix =  0.700 |ddv_scf|^2 =  3.384E+02

      iter #   4 total cpu time :    21.3 secs   av.it.:   9.7
      thresh= 1.000E-02 alpha_mix =  0.700 |ddv_scf|^2 =  2.253E-01

      iter #   5 total cpu time :    22.2 secs   av.it.:   5.5
      thresh= 1.000E-02 alpha_mix =  0.700 |ddv_scf|^2 =  7.949E-05

      iter #   6 total cpu time :    23.0 secs   av.it.:   5.2
      thresh= 8.916E-04 alpha_mix =  0.700 |ddv_scf|^2 =  2.351E-08

      iter #   7 total cpu time :    24.1 secs   av.it.:   7.7
      thresh= 1.533E-05 alpha_mix =  0.700 |ddv_scf|^2 =  4.935E-09

      iter #   8 total cpu time :    25.1 secs   av.it.:   7.2
      thresh= 7.025E-06 alpha_mix =  0.700 |ddv_scf|^2 =  1.362E-12

      iter #   9 total cpu time :    26.4 secs   av.it.:   9.6
      thresh= 1.167E-07 alpha_mix =  0.700 |ddv_scf|^2 =  1.971E-11

      iter #  10 total cpu time :    27.2 secs   av.it.:   5.2
      thresh= 4.439E-07 alpha_mix =  0.700 |ddv_scf|^2 =  3.739E-13

      iter #  11 total cpu time :    28.2 secs   av.it.:   7.3
      thresh= 6.115E-08 alpha_mix =  0.700 |ddv_scf|^2 =  2.433E-14

     End of self-consistent calculation

     Convergence has been achieved 


     Representation #  2 modes #   4  5  6

     Self-consistent Calculation

      iter #   1 total cpu time :    29.5 secs   av.it.:   7.6
      thresh= 1.000E-02 alpha_mix =  0.700 |ddv_scf|^2 =  4.474E-01

      iter #   2 total cpu time :    31.0 secs   av.it.:  12.7
      thresh= 1.000E-02 alpha_mix =  0.700 |ddv_scf|^2 =  1.224E+05

      iter #   3 total cpu time :    32.4 secs   av.it.:  12.7
      thresh= 1.000E-02 alpha_mix =  0.700 |ddv_scf|^2 =  3.384E+02

      iter #   4 total cpu time :    33.5 secs   av.it.:   9.9
      thresh= 1.000E-02 alpha_mix =  0.700 |ddv_scf|^2 =  2.253E-01

      iter #   5 total cpu time :    34.4 secs   av.it.:   5.5
      thresh= 1.000E-02 alpha_mix =  0.700 |ddv_scf|^2 =  7.980E-05

      iter #   6 total cpu time :    35.3 secs   av.it.:   5.1
      thresh= 8.933E-04 alpha_mix =  0.700 |ddv_scf|^2 =  2.084E-08

      iter #   7 total cpu time :    36.6 secs   av.it.:   7.8
      thresh= 1.444E-05 alpha_mix =  0.700 |ddv_scf|^2 =  5.111E-09

      iter #   8 total cpu time :    37.6 secs   av.it.:   7.1
      thresh= 7.149E-06 alpha_mix =  0.700 |ddv_scf|^2 =  1.160E-11

      iter #   9 total cpu time :    38.7 secs   av.it.:   8.2
      thresh= 3.406E-07 alpha_mix =  0.700 |ddv_scf|^2 =  1.578E-11

      iter #  10 total cpu time :    39.5 secs   av.it.:   5.4
      thresh= 3.972E-07 alpha_mix =  0.700 |ddv_scf|^2 =  2.890E-13

      iter #  11 total cpu time :    40.7 secs   av.it.:   7.4
      thresh= 5.375E-08 alpha_mix =  0.700 |ddv_scf|^2 =  2.554E-14

     End of self-consistent calculation

     Convergence has been achieved 
 
     Number of q in the star =    1
     List of q in the star:
          1   0.000000000   0.000000000   0.000000000

          Dielectric constant in cartesian axis 

          (   49302.980938733      -0.000000000       0.000000000 )
          (       0.000000000   49302.980938733       0.000000000 )
          (       0.000000000      -0.000000000   49302.980938733 )

          Effective charges (d Force / dE) in cartesian axis

           atom      1   Ge 
      Ex  (       20.76485       -0.00000        0.00000 )
      Ey  (        0.00000       20.76485       -0.00000 )
      Ez  (       -0.00000       -0.00000       20.76485 )
           atom      2   Ge 
      Ex  (      -21.66847        0.00000       -0.00000 )
      Ey  (        0.00000      -21.66847       -0.00000 )
      Ez  (       -0.00000       -0.00000      -21.66847 )

          Effective charges (d P / du) in cartesian axis 

           atom      1   Ge 
      Px  (       20.73614        0.00000        0.00000 )
      Py  (        0.00000       20.73614       -0.00000 )
      Pz  (        0.00000       -0.00000       20.73614 )
           atom      2   Ge 
      Px  (      -21.72353       -0.00000       -0.00000 )
      Py  (       -0.00000      -21.72353        0.00000 )
      Pz  (       -0.00000        0.00000      -21.72353 )

     Diagonalizing the dynamical matrix

     q = (    0.000000000   0.000000000   0.000000000 ) 

 **************************************************************************
     freq (    1) =     -16.362882 [THz] =    -545.806998 [cm-1]
     freq (    2) =     -16.362882 [THz] =    -545.806998 [cm-1]
     freq (    3) =     -16.362882 [THz] =    -545.806998 [cm-1]
     freq (    4) =       0.581455 [THz] =      19.395242 [cm-1]
     freq (    5) =       0.581455 [THz] =      19.395242 [cm-1]
     freq (    6) =       0.581455 [THz] =      19.395242 [cm-1]
 **************************************************************************

     Mode symmetry, T_d (-43m)  point group:

     freq (  1 -  3) =       -545.8  [cm-1]   --> T_2  G_15 P_4   I+R
     freq (  4 -  6) =         19.4  [cm-1]   --> T_2  G_15 P_4   I+R

     Calculation of q =   -0.1250000   0.1250000  -0.1250000

     Subspace diagonalization in iterative solution of the eigenvalue problem:
     one sub-group per k-point group (pool) will be used
     scalapack distributed-memory algorithm (size of sub-group:  2*  2 procs)

 
     Parallelization info
     --------------------
     sticks:   dense  smooth     PW     G-vecs:    dense   smooth      PW
     Min          48      48     15                  779      779     140
     Max          49      49     16                  783      783     143
     Sum         583     583    187                 9377     9377    1687
 

     Title: 
     YOU NEED TO PUT HERE SOME TITLE :)                                         


     bravais-lattice index     =            2
     lattice parameter (alat)  =      11.0000  a.u.
     unit-cell volume          =     332.7500 (a.u.)^3
     number of atoms/cell      =            2
     number of atomic types    =            1
     number of electrons       =        28.00
     number of Kohn-Sham states=           14
     kinetic-energy cutoff     =      35.0000  Ry
     charge density cutoff     =     140.0000  Ry
     Exchange-correlation      = PBE ( 1  4  3  4 0 0)

     celldm(1)=  11.000000  celldm(2)=   0.000000  celldm(3)=   0.000000
     celldm(4)=   0.000000  celldm(5)=   0.000000  celldm(6)=   0.000000

     crystal axes: (cart. coord. in units of alat)
               a(1) = (  -0.500000   0.000000   0.500000 )  
               a(2) = (   0.000000   0.500000   0.500000 )  
               a(3) = (  -0.500000   0.500000   0.000000 )  

     reciprocal axes: (cart. coord. in units 2 pi/alat)
               b(1) = ( -1.000000 -1.000000  1.000000 )  
               b(2) = (  1.000000  1.000000  1.000000 )  
               b(3) = ( -1.000000  1.000000 -1.000000 )  


     PseudoPot. # 1 for Ge read from file:
     ../PP/Ge.pbe-dn-kjpaw_psl.0.2.2.UPF
     MD5 check sum: acf6dd3aa1b4e03129ff8bf786ac0282
     Pseudo is Projector augmented-wave + core cor, Zval = 14.0
     Generated using "atomic" code by A. Dal Corso v.5.0.2 svn rev. 9415
     Shape of augmentation charge: PSQ
     Using radial grid of 1207 points,  6 beta functions with: 
                l(1) =   0
                l(2) =   0
                l(3) =   1
                l(4) =   1
                l(5) =   2
                l(6) =   2
     Q(r) pseudized with 0 coefficients 


     atomic species   valence    mass     pseudopotential
        Ge            14.00    72.64000     Ge( 1.00)

     24 Sym. Ops. (no inversion) found



   Cartesian axes

     site n.     atom                  positions (alat units)
         1           Ge  tau(   1) = (   0.0000000   0.0000000   0.0000000  )
         2           Ge  tau(   2) = (  -0.2500000   0.2500000   0.2500000  )

     number of k points=   112

     Number of k-points >= 100: set verbosity='high' to print them.

     Dense  grid:     9377 G-vectors     FFT dimensions: (  30,  30,  30)

     Estimated max dynamical RAM per process >       4.28 MB

     Estimated total dynamical RAM >      51.35 MB

     Check: negative/imaginary core charge=   -0.000149    0.000000

     The potential is recalculated from file :
     calc/_ph0/germanium.save/charge-density.dat

     Starting wfcs are   18 atomic wfcs
     Checking if some PAW data can be deallocated... 

     Band Structure Calculation
     Davidson diagonalization with overlap

     ethr =  3.57E-11,  avg # of iterations = 11.2

     total cpu time spent up to now is        3.5 secs

     End of band structure calculation

     Number of k-points >= 100: set verbosity='high' to print the bands.

     highest occupied level (ev):     7.4419

     Writing output data file germanium.save/

     YOU NEED TO PUT HERE SOME TITLE :)                                         

     bravais-lattice index     =            2
     lattice parameter (alat)  =      11.0000  a.u.
     unit-cell volume          =     332.7500 (a.u.)^3
     number of atoms/cell      =            2
     number of atomic types    =            1
     kinetic-energy cut-off    =      35.0000  Ry
     charge density cut-off    =     140.0000  Ry
     convergence threshold     =      5.0E-14
     beta                      =       0.7000
     number of iterations used =            4
     Exchange-correlation      = PBE ( 1  4  3  4 0 0)


     celldm(1)=   11.00000  celldm(2)=    0.00000  celldm(3)=    0.00000
     celldm(4)=    0.00000  celldm(5)=    0.00000  celldm(6)=    0.00000

     crystal axes: (cart. coord. in units of alat)
               a(1) = ( -0.5000  0.0000  0.5000 )  
               a(2) = (  0.0000  0.5000  0.5000 )  
               a(3) = ( -0.5000  0.5000  0.0000 )  

     reciprocal axes: (cart. coord. in units 2 pi/alat)
               b(1) = ( -1.0000 -1.0000  1.0000 )  
               b(2) = (  1.0000  1.0000  1.0000 )  
               b(3) = ( -1.0000  1.0000 -1.0000 )  


     Atoms inside the unit cell: 

     Cartesian axes

     site n.  atom      mass           positions (alat units)
        1     Ge  72.6400   tau(    1) = (    0.00000    0.00000    0.00000  )
        2     Ge  72.6400   tau(    2) = (   -0.25000    0.25000    0.25000  )

     Computing dynamical matrix for 
                    q = (  -0.1250000   0.1250000  -0.1250000 )
 
      6 Sym.Ops. (no q -> -q+G )


     G cutoff =  429.0952  (    780 G-vectors)     FFT grid: ( 30, 30, 30)
     number of k points=   112

     PseudoPot. # 1 for Ge read from file:
     ../PP/Ge.pbe-dn-kjpaw_psl.0.2.2.UPF
     MD5 check sum: acf6dd3aa1b4e03129ff8bf786ac0282
     Pseudo is Projector augmented-wave + core cor, Zval = 14.0
     Generated using "atomic" code by A. Dal Corso v.5.0.2 svn rev. 9415
     Shape of augmentation charge: PSQ
     Using radial grid of 1207 points,  6 beta functions with: 
                l(1) =   0
                l(2) =   0
                l(3) =   1
                l(4) =   1
                l(5) =   2
                l(6) =   2
     Q(r) pseudized with 0 coefficients 


     Mode symmetry, C_3v (3m)   point group:


     Atomic displacements:
     There are   4 irreducible representations

     Representation     1      1 modes -A_1  L_1  To be done

     Representation     2      1 modes -A_1  L_1  To be done

     Representation     3      2 modes -E    L_3  To be done

     Representation     4      2 modes -E    L_3  To be done



     Alpha used in Ewald sum =   1.3000
     PHONON       :    43.62s CPU        45.44s WALL



     Representation #  1 mode #   1

     Self-consistent Calculation

      iter #   1 total cpu time :    46.7 secs   av.it.:   7.8
      thresh= 1.000E-02 alpha_mix =  0.700 |ddv_scf|^2 =  7.363E-02

      iter #   2 total cpu time :    47.6 secs   av.it.:   8.5
      thresh= 1.000E-02 alpha_mix =  0.700 |ddv_scf|^2 =  4.671E+00

      iter #   3 total cpu time :    48.6 secs   av.it.:   8.3
      thresh= 1.000E-02 alpha_mix =  0.700 |ddv_scf|^2 =  1.182E-05

      iter #   4 total cpu time :    49.5 secs   av.it.:   9.1
      thresh= 3.437E-04 alpha_mix =  0.700 |ddv_scf|^2 =  2.566E-05

      iter #   5 total cpu time :    50.4 secs   av.it.:   7.2
      thresh= 5.065E-04 alpha_mix =  0.700 |ddv_scf|^2 =  1.023E-06

      iter #   6 total cpu time :    51.4 secs   av.it.:   7.4
      thresh= 1.011E-04 alpha_mix =  0.700 |ddv_scf|^2 =  4.070E-07

      iter #   7 total cpu time :    52.2 secs   av.it.:   6.2
      thresh= 6.380E-05 alpha_mix =  0.700 |ddv_scf|^2 =  1.942E-08

      iter #   8 total cpu time :    53.2 secs   av.it.:   8.8
      thresh= 1.394E-05 alpha_mix =  0.700 |ddv_scf|^2 =  6.493E-10

      iter #   9 total cpu time :    54.1 secs   av.it.:   8.2
      thresh= 2.548E-06 alpha_mix =  0.700 |ddv_scf|^2 =  1.931E-10

      iter #  10 total cpu time :    55.0 secs   av.it.:   7.8
      thresh= 1.390E-06 alpha_mix =  0.700 |ddv_scf|^2 =  1.454E-11

      iter #  11 total cpu time :    55.9 secs   av.it.:   7.3
      thresh= 3.814E-07 alpha_mix =  0.700 |ddv_scf|^2 =  2.934E-13

      iter #  12 total cpu time :    56.9 secs   av.it.:   9.0
      thresh= 5.416E-08 alpha_mix =  0.700 |ddv_scf|^2 =  2.594E-14

     End of self-consistent calculation

     Convergence has been achieved 


     Representation #  2 mode #   2

     Self-consistent Calculation

      iter #   1 total cpu time :    57.9 secs   av.it.:   7.9
      thresh= 1.000E-02 alpha_mix =  0.700 |ddv_scf|^2 =  7.363E-02

      iter #   2 total cpu time :    58.8 secs   av.it.:   8.5
      thresh= 1.000E-02 alpha_mix =  0.700 |ddv_scf|^2 =  4.671E+00

      iter #   3 total cpu time :    59.8 secs   av.it.:   8.3
      thresh= 1.000E-02 alpha_mix =  0.700 |ddv_scf|^2 =  1.177E-05

      iter #   4 total cpu time :    60.8 secs   av.it.:   9.1
      thresh= 3.431E-04 alpha_mix =  0.700 |ddv_scf|^2 =  2.566E-05

      iter #   5 total cpu time :    61.8 secs   av.it.:   7.3
      thresh= 5.065E-04 alpha_mix =  0.700 |ddv_scf|^2 =  9.960E-07

      iter #   6 total cpu time :    62.6 secs   av.it.:   7.5
      thresh= 9.980E-05 alpha_mix =  0.700 |ddv_scf|^2 =  6.595E-07

      iter #   7 total cpu time :    63.4 secs   av.it.:   5.7
      thresh= 8.121E-05 alpha_mix =  0.700 |ddv_scf|^2 =  4.651E-08

      iter #   8 total cpu time :    64.3 secs   av.it.:   8.2
      thresh= 2.157E-05 alpha_mix =  0.700 |ddv_scf|^2 =  6.179E-10

      iter #   9 total cpu time :    65.2 secs   av.it.:   8.2
      thresh= 2.486E-06 alpha_mix =  0.700 |ddv_scf|^2 =  1.899E-10

      iter #  10 total cpu time :    66.3 secs   av.it.:   7.8
      thresh= 1.378E-06 alpha_mix =  0.700 |ddv_scf|^2 =  1.385E-11

      iter #  11 total cpu time :    67.2 secs   av.it.:   7.3
      thresh= 3.721E-07 alpha_mix =  0.700 |ddv_scf|^2 =  4.408E-13

      iter #  12 total cpu time :    68.2 secs   av.it.:   8.6
      thresh= 6.639E-08 alpha_mix =  0.700 |ddv_scf|^2 =  9.214E-15

     End of self-consistent calculation

     Convergence has been achieved 


     Representation #  3 modes #   3  4

     Self-consistent Calculation

      iter #   1 total cpu time :    70.0 secs   av.it.:   7.5
      thresh= 1.000E-02 alpha_mix =  0.700 |ddv_scf|^2 =  1.384E-05

      iter #   2 total cpu time :    72.5 secs   av.it.:  10.7
      thresh= 3.720E-04 alpha_mix =  0.700 |ddv_scf|^2 =  6.411E-07

      iter #   3 total cpu time :    74.7 secs   av.it.:  10.7
      thresh= 8.007E-05 alpha_mix =  0.700 |ddv_scf|^2 =  1.648E-08

      iter #   4 total cpu time :    77.1 secs   av.it.:  10.5
      thresh= 1.284E-05 alpha_mix =  0.700 |ddv_scf|^2 =  3.697E-10

      iter #   5 total cpu time :    79.3 secs   av.it.:  10.5
      thresh= 1.923E-06 alpha_mix =  0.700 |ddv_scf|^2 =  2.307E-11

      iter #   6 total cpu time :    81.7 secs   av.it.:  10.5
      thresh= 4.803E-07 alpha_mix =  0.700 |ddv_scf|^2 =  3.368E-13

      iter #   7 total cpu time :    83.9 secs   av.it.:  10.1
      thresh= 5.803E-08 alpha_mix =  0.700 |ddv_scf|^2 =  1.933E-14

     End of self-consistent calculation

     Convergence has been achieved 


     Representation #  4 modes #   5  6

     Self-consistent Calculation

      iter #   1 total cpu time :    85.7 secs   av.it.:   7.5
      thresh= 1.000E-02 alpha_mix =  0.700 |ddv_scf|^2 =  1.385E-05

      iter #   2 total cpu time :    88.2 secs   av.it.:  10.6
      thresh= 3.722E-04 alpha_mix =  0.700 |ddv_scf|^2 =  6.443E-07

      iter #   3 total cpu time :    90.4 secs   av.it.:  10.6
      thresh= 8.027E-05 alpha_mix =  0.700 |ddv_scf|^2 =  1.668E-08

      iter #   4 total cpu time :    92.8 secs   av.it.:  10.4
      thresh= 1.292E-05 alpha_mix =  0.700 |ddv_scf|^2 =  3.634E-10

      iter #   5 total cpu time :    95.0 secs   av.it.:  10.4
      thresh= 1.906E-06 alpha_mix =  0.700 |ddv_scf|^2 =  2.302E-11

      iter #   6 total cpu time :    97.9 secs   av.it.:  10.5
      thresh= 4.798E-07 alpha_mix =  0.700 |ddv_scf|^2 =  3.376E-13

      iter #   7 total cpu time :   101.0 secs   av.it.:  10.1
      thresh= 5.811E-08 alpha_mix =  0.700 |ddv_scf|^2 =  1.894E-14

     End of self-consistent calculation

     Convergence has been achieved 
 
     Number of q in the star =    4
     List of q in the star:
          1  -0.125000000   0.125000000  -0.125000000
          2   0.125000000  -0.125000000  -0.125000000
          3  -0.125000000  -0.125000000   0.125000000
          4   0.125000000   0.125000000   0.125000000
     In addition there is the -q list: 
          1   0.125000000  -0.125000000   0.125000000
          2  -0.125000000   0.125000000   0.125000000
          3   0.125000000   0.125000000  -0.125000000
          4  -0.125000000  -0.125000000  -0.125000000

     Diagonalizing the dynamical matrix

     q = (   -0.125000000   0.125000000  -0.125000000 ) 

 **************************************************************************
     freq (    1) =       1.145937 [THz] =      38.224339 [cm-1]
     freq (    2) =       1.145937 [THz] =      38.224339 [cm-1]
     freq (    3) =       1.992866 [THz] =      66.474869 [cm-1]
     freq (    4) =       8.543836 [THz] =     284.991679 [cm-1]
     freq (    5) =       8.543836 [THz] =     284.991679 [cm-1]
     freq (    6) =       8.548230 [THz] =     285.138261 [cm-1]
 **************************************************************************

     Mode symmetry, C_3v (3m)   point group:

     freq (  1 -  2) =         38.2  [cm-1]   --> E    L_3           
     freq (  3 -  3) =         66.5  [cm-1]   --> A_1  L_1           
     freq (  4 -  5) =        285.0  [cm-1]   --> E    L_3           
     freq (  6 -  6) =        285.1  [cm-1]   --> A_1  L_1           

     Calculation of q =   -0.2500000   0.2500000  -0.2500000
 
     Parallelization info
     --------------------
     sticks:   dense  smooth     PW     G-vecs:    dense   smooth      PW
     Min          48      48     16                  779      779     150
     Max          49      49     17                  783      783     152
     Sum         583     583    199                 9377     9377    1807
 

     Title: 
     YOU NEED TO PUT HERE SOME TITLE :)                                         


     bravais-lattice index     =            2
     lattice parameter (alat)  =      11.0000  a.u.
     unit-cell volume          =     332.7500 (a.u.)^3
     number of atoms/cell      =            2
     number of atomic types    =            1
     number of electrons       =        28.00
     number of Kohn-Sham states=           14
     kinetic-energy cutoff     =      35.0000  Ry
     charge density cutoff     =     140.0000  Ry
     Exchange-correlation      = PBE ( 1  4  3  4 0 0)

     celldm(1)=  11.000000  celldm(2)=   0.000000  celldm(3)=   0.000000
     celldm(4)=   0.000000  celldm(5)=   0.000000  celldm(6)=   0.000000

     crystal axes: (cart. coord. in units of alat)
               a(1) = (  -0.500000   0.000000   0.500000 )  
               a(2) = (   0.000000   0.500000   0.500000 )  
               a(3) = (  -0.500000   0.500000   0.000000 )  

     reciprocal axes: (cart. coord. in units 2 pi/alat)
               b(1) = ( -1.000000 -1.000000  1.000000 )  
               b(2) = (  1.000000  1.000000  1.000000 )  
               b(3) = ( -1.000000  1.000000 -1.000000 )  


     PseudoPot. # 1 for Ge read from file:
     ../PP/Ge.pbe-dn-kjpaw_psl.0.2.2.UPF
     MD5 check sum: acf6dd3aa1b4e03129ff8bf786ac0282
     Pseudo is Projector augmented-wave + core cor, Zval = 14.0
     Generated using "atomic" code by A. Dal Corso v.5.0.2 svn rev. 9415
     Shape of augmentation charge: PSQ
     Using radial grid of 1207 points,  6 beta functions with: 
                l(1) =   0
                l(2) =   0
                l(3) =   1
                l(4) =   1
                l(5) =   2
                l(6) =   2
     Q(r) pseudized with 0 coefficients 


     atomic species   valence    mass     pseudopotential
        Ge            14.00    72.64000     Ge( 1.00)

     24 Sym. Ops. (no inversion) found



   Cartesian axes

     site n.     atom                  positions (alat units)
         1           Ge  tau(   1) = (   0.0000000   0.0000000   0.0000000  )
         2           Ge  tau(   2) = (  -0.2500000   0.2500000   0.2500000  )

     number of k points=   112

     Number of k-points >= 100: set verbosity='high' to print them.

     Dense  grid:     9377 G-vectors     FFT dimensions: (  30,  30,  30)

     Estimated max dynamical RAM per process >       4.30 MB

     Estimated total dynamical RAM >      51.55 MB

     Check: negative/imaginary core charge=   -0.000149    0.000000

     The potential is recalculated from file :
     calc/_ph0/germanium.save/charge-density.dat

     Starting wfcs are   18 atomic wfcs
     Checking if some PAW data can be deallocated... 

     Band Structure Calculation
     Davidson diagonalization with overlap

     ethr =  3.57E-11,  avg # of iterations = 11.1

     total cpu time spent up to now is        7.7 secs

     End of band structure calculation

     Number of k-points >= 100: set verbosity='high' to print the bands.

     highest occupied level (ev):     7.4419

     Writing output data file germanium.save/

     YOU NEED TO PUT HERE SOME TITLE :)                                         

     bravais-lattice index     =            2
     lattice parameter (alat)  =      11.0000  a.u.
     unit-cell volume          =     332.7500 (a.u.)^3
     number of atoms/cell      =            2
     number of atomic types    =            1
     kinetic-energy cut-off    =      35.0000  Ry
     charge density cut-off    =     140.0000  Ry
     convergence threshold     =      5.0E-14
     beta                      =       0.7000
     number of iterations used =            4
     Exchange-correlation      = PBE ( 1  4  3  4 0 0)


     celldm(1)=   11.00000  celldm(2)=    0.00000  celldm(3)=    0.00000
     celldm(4)=    0.00000  celldm(5)=    0.00000  celldm(6)=    0.00000

     crystal axes: (cart. coord. in units of alat)
               a(1) = ( -0.5000  0.0000  0.5000 )  
               a(2) = (  0.0000  0.5000  0.5000 )  
               a(3) = ( -0.5000  0.5000  0.0000 )  

     reciprocal axes: (cart. coord. in units 2 pi/alat)
               b(1) = ( -1.0000 -1.0000  1.0000 )  
               b(2) = (  1.0000  1.0000  1.0000 )  
               b(3) = ( -1.0000  1.0000 -1.0000 )  


     Atoms inside the unit cell: 

     Cartesian axes

     site n.  atom      mass           positions (alat units)
        1     Ge  72.6400   tau(    1) = (    0.00000    0.00000    0.00000  )
        2     Ge  72.6400   tau(    2) = (   -0.25000    0.25000    0.25000  )

     Computing dynamical matrix for 
                    q = (  -0.2500000   0.2500000  -0.2500000 )
 
      6 Sym.Ops. (no q -> -q+G )


     G cutoff =  429.0952  (    780 G-vectors)     FFT grid: ( 30, 30, 30)
     number of k points=   112

     PseudoPot. # 1 for Ge read from file:
     ../PP/Ge.pbe-dn-kjpaw_psl.0.2.2.UPF
     MD5 check sum: acf6dd3aa1b4e03129ff8bf786ac0282
     Pseudo is Projector augmented-wave + core cor, Zval = 14.0
     Generated using "atomic" code by A. Dal Corso v.5.0.2 svn rev. 9415
     Shape of augmentation charge: PSQ
     Using radial grid of 1207 points,  6 beta functions with: 
                l(1) =   0
                l(2) =   0
                l(3) =   1
                l(4) =   1
                l(5) =   2
                l(6) =   2
     Q(r) pseudized with 0 coefficients 


     Mode symmetry, C_3v (3m)   point group:


     Atomic displacements:
     There are   4 irreducible representations

     Representation     1      1 modes -A_1  L_1  To be done

     Representation     2      1 modes -A_1  L_1  To be done

     Representation     3      2 modes -E    L_3  To be done

     Representation     4      2 modes -E    L_3  To be done



     Alpha used in Ewald sum =   1.3000
     PHONON       :  1m41.67s CPU     1m46.05s WALL



     Representation #  1 mode #   1

     Self-consistent Calculation

      iter #   1 total cpu time :   107.4 secs   av.it.:   7.9
      thresh= 1.000E-02 alpha_mix =  0.700 |ddv_scf|^2 =  6.839E-03

      iter #   2 total cpu time :   108.4 secs   av.it.:   8.4
      thresh= 8.270E-03 alpha_mix =  0.700 |ddv_scf|^2 =  1.355E-01

      iter #   3 total cpu time :   109.3 secs   av.it.:   7.6
      thresh= 1.000E-02 alpha_mix =  0.700 |ddv_scf|^2 =  1.178E-05

      iter #   4 total cpu time :   110.3 secs   av.it.:   9.2
      thresh= 3.432E-04 alpha_mix =  0.700 |ddv_scf|^2 =  1.143E-06

      iter #   5 total cpu time :   111.5 secs   av.it.:   9.3
      thresh= 1.069E-04 alpha_mix =  0.700 |ddv_scf|^2 =  6.168E-08

      iter #   6 total cpu time :   112.5 secs   av.it.:   9.9
      thresh= 2.484E-05 alpha_mix =  0.700 |ddv_scf|^2 =  9.597E-09

      iter #   7 total cpu time :   113.6 secs   av.it.:   9.3
      thresh= 9.796E-06 alpha_mix =  0.700 |ddv_scf|^2 =  2.228E-08

      iter #   8 total cpu time :   115.0 secs   av.it.:   7.4
      thresh= 1.493E-05 alpha_mix =  0.700 |ddv_scf|^2 =  4.253E-09

      iter #   9 total cpu time :   115.9 secs   av.it.:   8.2
      thresh= 6.522E-06 alpha_mix =  0.700 |ddv_scf|^2 =  7.243E-10

      iter #  10 total cpu time :   116.9 secs   av.it.:   7.7
      thresh= 2.691E-06 alpha_mix =  0.700 |ddv_scf|^2 =  7.321E-12

      iter #  11 total cpu time :   118.0 secs   av.it.:   9.9
      thresh= 2.706E-07 alpha_mix =  0.700 |ddv_scf|^2 =  1.903E-12

      iter #  12 total cpu time :   119.0 secs   av.it.:   9.2
      thresh= 1.380E-07 alpha_mix =  0.700 |ddv_scf|^2 =  2.434E-13

      iter #  13 total cpu time :   120.0 secs   av.it.:   9.4
      thresh= 4.933E-08 alpha_mix =  0.700 |ddv_scf|^2 =  7.412E-14

      iter #  14 total cpu time :   121.1 secs   av.it.:   9.2
      thresh= 2.723E-08 alpha_mix =  0.700 |ddv_scf|^2 =  5.316E-14

      iter #  15 total cpu time :   122.5 secs   av.it.:   8.0
      thresh= 2.306E-08 alpha_mix =  0.700 |ddv_scf|^2 =  1.459E-14

     End of self-consistent calculation

     Convergence has been achieved 


     Representation #  2 mode #   2

     Self-consistent Calculation

      iter #   1 total cpu time :   124.0 secs   av.it.:   7.9
      thresh= 1.000E-02 alpha_mix =  0.700 |ddv_scf|^2 =  6.839E-03

      iter #   2 total cpu time :   125.4 secs   av.it.:   8.4
      thresh= 8.270E-03 alpha_mix =  0.700 |ddv_scf|^2 =  1.355E-01

      iter #   3 total cpu time :   126.7 secs   av.it.:   7.6
      thresh= 1.000E-02 alpha_mix =  0.700 |ddv_scf|^2 =  1.177E-05

      iter #   4 total cpu time :   127.7 secs   av.it.:   9.2
      thresh= 3.430E-04 alpha_mix =  0.700 |ddv_scf|^2 =  1.148E-06

      iter #   5 total cpu time :   128.7 secs   av.it.:   9.3
      thresh= 1.071E-04 alpha_mix =  0.700 |ddv_scf|^2 =  6.370E-08

      iter #   6 total cpu time :   129.8 secs   av.it.:   9.8
      thresh= 2.524E-05 alpha_mix =  0.700 |ddv_scf|^2 =  1.954E-08

      iter #   7 total cpu time :   130.7 secs   av.it.:   8.4
      thresh= 1.398E-05 alpha_mix =  0.700 |ddv_scf|^2 =  5.482E-08

      iter #   8 total cpu time :   131.7 secs   av.it.:   7.9
      thresh= 2.341E-05 alpha_mix =  0.700 |ddv_scf|^2 =  3.868E-09

      iter #   9 total cpu time :   132.6 secs   av.it.:   8.3
      thresh= 6.219E-06 alpha_mix =  0.700 |ddv_scf|^2 =  7.967E-10

      iter #  10 total cpu time :   133.5 secs   av.it.:   7.8
      thresh= 2.823E-06 alpha_mix =  0.700 |ddv_scf|^2 =  6.350E-12

      iter #  11 total cpu time :   134.6 secs   av.it.:  10.0
      thresh= 2.520E-07 alpha_mix =  0.700 |ddv_scf|^2 =  2.112E-12

      iter #  12 total cpu time :   135.6 secs   av.it.:   9.1
      thresh= 1.453E-07 alpha_mix =  0.700 |ddv_scf|^2 =  2.236E-13

      iter #  13 total cpu time :   136.8 secs   av.it.:   9.4
      thresh= 4.729E-08 alpha_mix =  0.700 |ddv_scf|^2 =  1.044E-13

      iter #  14 total cpu time :   137.8 secs   av.it.:   9.0
      thresh= 3.231E-08 alpha_mix =  0.700 |ddv_scf|^2 =  9.763E-14

      iter #  15 total cpu time :   138.6 secs   av.it.:   7.4
      thresh= 3.125E-08 alpha_mix =  0.700 |ddv_scf|^2 =  8.630E-15

     End of self-consistent calculation

     Convergence has been achieved 


     Representation #  3 modes #   3  4

     Self-consistent Calculation

      iter #   1 total cpu time :   140.5 secs   av.it.:   7.5
      thresh= 1.000E-02 alpha_mix =  0.700 |ddv_scf|^2 =  1.464E-05

      iter #   2 total cpu time :   142.9 secs   av.it.:  10.7
      thresh= 3.826E-04 alpha_mix =  0.700 |ddv_scf|^2 =  8.542E-07

      iter #   3 total cpu time :   145.1 secs   av.it.:  10.6
      thresh= 9.242E-05 alpha_mix =  0.700 |ddv_scf|^2 =  1.870E-08

      iter #   4 total cpu time :   147.5 secs   av.it.:  10.6
      thresh= 1.368E-05 alpha_mix =  0.700 |ddv_scf|^2 =  5.635E-10

      iter #   5 total cpu time :   149.7 secs   av.it.:  10.4
      thresh= 2.374E-06 alpha_mix =  0.700 |ddv_scf|^2 =  2.795E-11

      iter #   6 total cpu time :   152.4 secs   av.it.:  10.5
      thresh= 5.287E-07 alpha_mix =  0.700 |ddv_scf|^2 =  4.244E-13

      iter #   7 total cpu time :   154.7 secs   av.it.:  10.0
      thresh= 6.514E-08 alpha_mix =  0.700 |ddv_scf|^2 =  1.992E-14

     End of self-consistent calculation

     Convergence has been achieved 


     Representation #  4 modes #   5  6

     Self-consistent Calculation

      iter #   1 total cpu time :   156.6 secs   av.it.:   7.5
      thresh= 1.000E-02 alpha_mix =  0.700 |ddv_scf|^2 =  1.465E-05

      iter #   2 total cpu time :   158.8 secs   av.it.:  10.6
      thresh= 3.827E-04 alpha_mix =  0.700 |ddv_scf|^2 =  8.576E-07

      iter #   3 total cpu time :   161.1 secs   av.it.:  10.6
      thresh= 9.261E-05 alpha_mix =  0.700 |ddv_scf|^2 =  1.893E-08

      iter #   4 total cpu time :   163.4 secs   av.it.:  10.5
      thresh= 1.376E-05 alpha_mix =  0.700 |ddv_scf|^2 =  5.588E-10

      iter #   5 total cpu time :   165.7 secs   av.it.:  10.4
      thresh= 2.364E-06 alpha_mix =  0.700 |ddv_scf|^2 =  2.768E-11

      iter #   6 total cpu time :   168.0 secs   av.it.:  10.4
      thresh= 5.262E-07 alpha_mix =  0.700 |ddv_scf|^2 =  4.266E-13

      iter #   7 total cpu time :   170.2 secs   av.it.:   9.9
      thresh= 6.531E-08 alpha_mix =  0.700 |ddv_scf|^2 =  1.962E-14

     End of self-consistent calculation

     Convergence has been achieved 
 
     Number of q in the star =    4
     List of q in the star:
          1  -0.250000000   0.250000000  -0.250000000
          2   0.250000000  -0.250000000  -0.250000000
          3  -0.250000000  -0.250000000   0.250000000
          4   0.250000000   0.250000000   0.250000000
     In addition there is the -q list: 
          1   0.250000000  -0.250000000   0.250000000
          2  -0.250000000   0.250000000   0.250000000
          3   0.250000000   0.250000000  -0.250000000
          4  -0.250000000  -0.250000000  -0.250000000

     Diagonalizing the dynamical matrix

     q = (   -0.250000000   0.250000000  -0.250000000 ) 

 **************************************************************************
     freq (    1) =       1.707690 [THz] =      56.962415 [cm-1]
     freq (    2) =       1.707690 [THz] =      56.962415 [cm-1]
     freq (    3) =       3.650948 [THz] =     121.782501 [cm-1]
     freq (    4) =       8.138255 [THz] =     271.462968 [cm-1]
     freq (    5) =       8.318798 [THz] =     277.485241 [cm-1]
     freq (    6) =       8.318798 [THz] =     277.485241 [cm-1]
 **************************************************************************

     Mode symmetry, C_3v (3m)   point group:

     freq (  1 -  2) =         57.0  [cm-1]   --> E    L_3           
     freq (  3 -  3) =        121.8  [cm-1]   --> A_1  L_1           
     freq (  4 -  4) =        271.5  [cm-1]   --> A_1  L_1           
     freq (  5 -  6) =        277.5  [cm-1]   --> E    L_3           

     Calculation of q =   -0.3750000   0.3750000  -0.3750000
 
     Parallelization info
     --------------------
     sticks:   dense  smooth     PW     G-vecs:    dense   smooth      PW
     Min          48      48     16                  779      779     156
     Max          49      49     17                  783      783     159
     Sum         583     583    199                 9377     9377    1893
 

     Title: 
     YOU NEED TO PUT HERE SOME TITLE :)                                         


     bravais-lattice index     =            2
     lattice parameter (alat)  =      11.0000  a.u.
     unit-cell volume          =     332.7500 (a.u.)^3
     number of atoms/cell      =            2
     number of atomic types    =            1
     number of electrons       =        28.00
     number of Kohn-Sham states=           14
     kinetic-energy cutoff     =      35.0000  Ry
     charge density cutoff     =     140.0000  Ry
     Exchange-correlation      = PBE ( 1  4  3  4 0 0)

     celldm(1)=  11.000000  celldm(2)=   0.000000  celldm(3)=   0.000000
     celldm(4)=   0.000000  celldm(5)=   0.000000  celldm(6)=   0.000000

     crystal axes: (cart. coord. in units of alat)
               a(1) = (  -0.500000   0.000000   0.500000 )  
               a(2) = (   0.000000   0.500000   0.500000 )  
               a(3) = (  -0.500000   0.500000   0.000000 )  

     reciprocal axes: (cart. coord. in units 2 pi/alat)
               b(1) = ( -1.000000 -1.000000  1.000000 )  
               b(2) = (  1.000000  1.000000  1.000000 )  
               b(3) = ( -1.000000  1.000000 -1.000000 )  


     PseudoPot. # 1 for Ge read from file:
     ../PP/Ge.pbe-dn-kjpaw_psl.0.2.2.UPF
     MD5 check sum: acf6dd3aa1b4e03129ff8bf786ac0282
     Pseudo is Projector augmented-wave + core cor, Zval = 14.0
     Generated using "atomic" code by A. Dal Corso v.5.0.2 svn rev. 9415
     Shape of augmentation charge: PSQ
     Using radial grid of 1207 points,  6 beta functions with: 
                l(1) =   0
                l(2) =   0
                l(3) =   1
                l(4) =   1
                l(5) =   2
                l(6) =   2
     Q(r) pseudized with 0 coefficients 


     atomic species   valence    mass     pseudopotential
        Ge            14.00    72.64000     Ge( 1.00)

     24 Sym. Ops. (no inversion) found



   Cartesian axes

     site n.     atom                  positions (alat units)
         1           Ge  tau(   1) = (   0.0000000   0.0000000   0.0000000  )
         2           Ge  tau(   2) = (  -0.2500000   0.2500000   0.2500000  )

     number of k points=   112

     Number of k-points >= 100: set verbosity='high' to print them.

     Dense  grid:     9377 G-vectors     FFT dimensions: (  30,  30,  30)

     Estimated max dynamical RAM per process >       4.31 MB

     Estimated total dynamical RAM >      51.76 MB

     Check: negative/imaginary core charge=   -0.000149    0.000000

     The potential is recalculated from file :
     calc/_ph0/germanium.save/charge-density.dat

     Starting wfcs are   18 atomic wfcs
     Checking if some PAW data can be deallocated... 

     Band Structure Calculation
     Davidson diagonalization with overlap

     ethr =  3.57E-11,  avg # of iterations = 11.2

     total cpu time spent up to now is       11.5 secs

     End of band structure calculation

     Number of k-points >= 100: set verbosity='high' to print the bands.

     highest occupied level (ev):     7.4419

     Writing output data file germanium.save/

     YOU NEED TO PUT HERE SOME TITLE :)                                         

     bravais-lattice index     =            2
     lattice parameter (alat)  =      11.0000  a.u.
     unit-cell volume          =     332.7500 (a.u.)^3
     number of atoms/cell      =            2
     number of atomic types    =            1
     kinetic-energy cut-off    =      35.0000  Ry
     charge density cut-off    =     140.0000  Ry
     convergence threshold     =      5.0E-14
     beta                      =       0.7000
     number of iterations used =            4
     Exchange-correlation      = PBE ( 1  4  3  4 0 0)


     celldm(1)=   11.00000  celldm(2)=    0.00000  celldm(3)=    0.00000
     celldm(4)=    0.00000  celldm(5)=    0.00000  celldm(6)=    0.00000

     crystal axes: (cart. coord. in units of alat)
               a(1) = ( -0.5000  0.0000  0.5000 )  
               a(2) = (  0.0000  0.5000  0.5000 )  
               a(3) = ( -0.5000  0.5000  0.0000 )  

     reciprocal axes: (cart. coord. in units 2 pi/alat)
               b(1) = ( -1.0000 -1.0000  1.0000 )  
               b(2) = (  1.0000  1.0000  1.0000 )  
               b(3) = ( -1.0000  1.0000 -1.0000 )  


     Atoms inside the unit cell: 

     Cartesian axes

     site n.  atom      mass           positions (alat units)
        1     Ge  72.6400   tau(    1) = (    0.00000    0.00000    0.00000  )
        2     Ge  72.6400   tau(    2) = (   -0.25000    0.25000    0.25000  )

     Computing dynamical matrix for 
                    q = (  -0.3750000   0.3750000  -0.3750000 )
 
      6 Sym.Ops. (no q -> -q+G )


     G cutoff =  429.0952  (    780 G-vectors)     FFT grid: ( 30, 30, 30)
     number of k points=   112

     PseudoPot. # 1 for Ge read from file:
     ../PP/Ge.pbe-dn-kjpaw_psl.0.2.2.UPF
     MD5 check sum: acf6dd3aa1b4e03129ff8bf786ac0282
     Pseudo is Projector augmented-wave + core cor, Zval = 14.0
     Generated using "atomic" code by A. Dal Corso v.5.0.2 svn rev. 9415
     Shape of augmentation charge: PSQ
     Using radial grid of 1207 points,  6 beta functions with: 
                l(1) =   0
                l(2) =   0
                l(3) =   1
                l(4) =   1
                l(5) =   2
                l(6) =   2
     Q(r) pseudized with 0 coefficients 


     Mode symmetry, C_3v (3m)   point group:


     Atomic displacements:
     There are   4 irreducible representations

     Representation     1      1 modes -A_1  L_1  To be done

     Representation     2      1 modes -A_1  L_1  To be done

     Representation     3      2 modes -E    L_3  To be done

     Representation     4      2 modes -E    L_3  To be done



     Alpha used in Ewald sum =   1.3000
     PHONON       :  2m47.09s CPU     2m54.74s WALL



     Representation #  1 mode #   1

     Self-consistent Calculation

      iter #   1 total cpu time :   175.8 secs   av.it.:   7.9
      thresh= 1.000E-02 alpha_mix =  0.700 |ddv_scf|^2 =  1.386E-03

      iter #   2 total cpu time :   176.8 secs   av.it.:   8.9
      thresh= 3.723E-03 alpha_mix =  0.700 |ddv_scf|^2 =  8.561E-03

      iter #   3 total cpu time :   177.7 secs   av.it.:   7.4
      thresh= 9.252E-03 alpha_mix =  0.700 |ddv_scf|^2 =  1.294E-05

      iter #   4 total cpu time :   178.7 secs   av.it.:   9.1
      thresh= 3.598E-04 alpha_mix =  0.700 |ddv_scf|^2 =  4.522E-07

      iter #   5 total cpu time :   179.7 secs   av.it.:   9.6
      thresh= 6.725E-05 alpha_mix =  0.700 |ddv_scf|^2 =  7.154E-08

      iter #   6 total cpu time :   180.8 secs   av.it.:   9.8
      thresh= 2.675E-05 alpha_mix =  0.700 |ddv_scf|^2 =  4.467E-09

      iter #   7 total cpu time :   181.9 secs   av.it.:  10.0
      thresh= 6.684E-06 alpha_mix =  0.700 |ddv_scf|^2 =  1.866E-10

      iter #   8 total cpu time :   183.0 secs   av.it.:  10.0
      thresh= 1.366E-06 alpha_mix =  0.700 |ddv_scf|^2 =  3.424E-10

      iter #   9 total cpu time :   183.9 secs   av.it.:   8.0
      thresh= 1.850E-06 alpha_mix =  0.700 |ddv_scf|^2 =  4.051E-11

      iter #  10 total cpu time :   184.9 secs   av.it.:   9.1
      thresh= 6.365E-07 alpha_mix =  0.700 |ddv_scf|^2 =  1.443E-12

      iter #  11 total cpu time :   185.9 secs   av.it.:   9.3
      thresh= 1.201E-07 alpha_mix =  0.700 |ddv_scf|^2 =  1.388E-12

      iter #  12 total cpu time :   187.0 secs   av.it.:   8.4
      thresh= 1.178E-07 alpha_mix =  0.700 |ddv_scf|^2 =  4.105E-14

     End of self-consistent calculation

     Convergence has been achieved 


     Representation #  2 mode #   2

     Self-consistent Calculation

      iter #   1 total cpu time :   188.0 secs   av.it.:   7.9
      thresh= 1.000E-02 alpha_mix =  0.700 |ddv_scf|^2 =  1.386E-03

      iter #   2 total cpu time :   189.0 secs   av.it.:   8.9
      thresh= 3.723E-03 alpha_mix =  0.700 |ddv_scf|^2 =  8.560E-03

      iter #   3 total cpu time :   189.8 secs   av.it.:   7.4
      thresh= 9.252E-03 alpha_mix =  0.700 |ddv_scf|^2 =  1.293E-05

      iter #   4 total cpu time :   190.8 secs   av.it.:   9.1
      thresh= 3.596E-04 alpha_mix =  0.700 |ddv_scf|^2 =  4.528E-07

      iter #   5 total cpu time :   192.0 secs   av.it.:   9.6
      thresh= 6.729E-05 alpha_mix =  0.700 |ddv_scf|^2 =  7.054E-08

      iter #   6 total cpu time :   193.1 secs   av.it.:   9.8
      thresh= 2.656E-05 alpha_mix =  0.700 |ddv_scf|^2 =  4.538E-09

      iter #   7 total cpu time :   194.2 secs   av.it.:  10.0
      thresh= 6.736E-06 alpha_mix =  0.700 |ddv_scf|^2 =  2.162E-10

      iter #   8 total cpu time :   195.2 secs   av.it.:   9.9
      thresh= 1.470E-06 alpha_mix =  0.700 |ddv_scf|^2 =  4.793E-10

      iter #   9 total cpu time :   196.1 secs   av.it.:   7.8
      thresh= 2.189E-06 alpha_mix =  0.700 |ddv_scf|^2 =  2.860E-11

      iter #  10 total cpu time :   197.2 secs   av.it.:   9.0
      thresh= 5.348E-07 alpha_mix =  0.700 |ddv_scf|^2 =  6.044E-13

      iter #  11 total cpu time :   198.3 secs   av.it.:   9.8
      thresh= 7.775E-08 alpha_mix =  0.700 |ddv_scf|^2 =  7.027E-13

      iter #  12 total cpu time :   199.2 secs   av.it.:   8.0
      thresh= 8.383E-08 alpha_mix =  0.700 |ddv_scf|^2 =  2.245E-14

     End of self-consistent calculation

     Convergence has been achieved 


     Representation #  3 modes #   3  4

     Self-consistent Calculation

      iter #   1 total cpu time :   201.1 secs   av.it.:   7.6
      thresh= 1.000E-02 alpha_mix =  0.700 |ddv_scf|^2 =  1.551E-05

      iter #   2 total cpu time :   203.5 secs   av.it.:  10.6
      thresh= 3.939E-04 alpha_mix =  0.700 |ddv_scf|^2 =  1.100E-06

      iter #   3 total cpu time :   205.8 secs   av.it.:  10.6
      thresh= 1.049E-04 alpha_mix =  0.700 |ddv_scf|^2 =  2.038E-08

      iter #   4 total cpu time :   208.2 secs   av.it.:  10.6
      thresh= 1.428E-05 alpha_mix =  0.700 |ddv_scf|^2 =  6.916E-10

      iter #   5 total cpu time :   210.4 secs   av.it.:  10.5
      thresh= 2.630E-06 alpha_mix =  0.700 |ddv_scf|^2 =  3.370E-11

      iter #   6 total cpu time :   212.8 secs   av.it.:  10.5
      thresh= 5.805E-07 alpha_mix =  0.700 |ddv_scf|^2 =  7.738E-13

      iter #   7 total cpu time :   214.9 secs   av.it.:  10.2
      thresh= 8.797E-08 alpha_mix =  0.700 |ddv_scf|^2 =  2.158E-14

     End of self-consistent calculation

     Convergence has been achieved 


     Representation #  4 modes #   5  6

     Self-consistent Calculation

      iter #   1 total cpu time :   217.0 secs   av.it.:   7.5
      thresh= 1.000E-02 alpha_mix =  0.700 |ddv_scf|^2 =  1.552E-05

      iter #   2 total cpu time :   219.2 secs   av.it.:  10.6
      thresh= 3.940E-04 alpha_mix =  0.700 |ddv_scf|^2 =  1.104E-06

      iter #   3 total cpu time :   221.5 secs   av.it.:  10.5
      thresh= 1.051E-04 alpha_mix =  0.700 |ddv_scf|^2 =  2.064E-08

      iter #   4 total cpu time :   223.7 secs   av.it.:  10.5
      thresh= 1.436E-05 alpha_mix =  0.700 |ddv_scf|^2 =  6.893E-10

      iter #   5 total cpu time :   225.9 secs   av.it.:  10.5
      thresh= 2.625E-06 alpha_mix =  0.700 |ddv_scf|^2 =  3.339E-11

      iter #   6 total cpu time :   228.1 secs   av.it.:  10.3
      thresh= 5.779E-07 alpha_mix =  0.700 |ddv_scf|^2 =  7.711E-13

      iter #   7 total cpu time :   230.2 secs   av.it.:  10.1
      thresh= 8.782E-08 alpha_mix =  0.700 |ddv_scf|^2 =  2.139E-14

     End of self-consistent calculation

     Convergence has been achieved 
 
     Number of q in the star =    4
     List of q in the star:
          1  -0.375000000   0.375000000  -0.375000000
          2   0.375000000  -0.375000000  -0.375000000
          3  -0.375000000  -0.375000000   0.375000000
          4   0.375000000   0.375000000   0.375000000
     In addition there is the -q list: 
          1   0.375000000  -0.375000000   0.375000000
          2  -0.375000000   0.375000000   0.375000000
          3   0.375000000   0.375000000  -0.375000000
          4  -0.375000000  -0.375000000  -0.375000000

     Diagonalizing the dynamical matrix

     q = (   -0.375000000   0.375000000  -0.375000000 ) 

 **************************************************************************
     freq (    1) =       1.996574 [THz] =      66.598526 [cm-1]
     freq (    2) =       1.996574 [THz] =      66.598526 [cm-1]
     freq (    3) =       5.021718 [THz] =     167.506480 [cm-1]
     freq (    4) =       7.537861 [THz] =     251.435977 [cm-1]
     freq (    5) =       8.163755 [THz] =     272.313545 [cm-1]
     freq (    6) =       8.163755 [THz] =     272.313545 [cm-1]
 **************************************************************************

     Mode symmetry, C_3v (3m)   point group:

     freq (  1 -  2) =         66.6  [cm-1]   --> E    L_3           
     freq (  3 -  3) =        167.5  [cm-1]   --> A_1  L_1           
     freq (  4 -  4) =        251.4  [cm-1]   --> A_1  L_1           
     freq (  5 -  6) =        272.3  [cm-1]   --> E    L_3           

     Calculation of q =    0.5000000  -0.5000000   0.5000000
 
     Parallelization info
     --------------------
     sticks:   dense  smooth     PW     G-vecs:    dense   smooth      PW
     Min          48      48     17                  779      779     165
     Max          49      49     19                  783      783     166
     Sum         583     583    211                 9377     9377    1989
 

     Title: 
     YOU NEED TO PUT HERE SOME TITLE :)                                         


     bravais-lattice index     =            2
     lattice parameter (alat)  =      11.0000  a.u.
     unit-cell volume          =     332.7500 (a.u.)^3
     number of atoms/cell      =            2
     number of atomic types    =            1
     number of electrons       =        28.00
     number of Kohn-Sham states=           14
     kinetic-energy cutoff     =      35.0000  Ry
     charge density cutoff     =     140.0000  Ry
     Exchange-correlation      = PBE ( 1  4  3  4 0 0)

     celldm(1)=  11.000000  celldm(2)=   0.000000  celldm(3)=   0.000000
     celldm(4)=   0.000000  celldm(5)=   0.000000  celldm(6)=   0.000000

     crystal axes: (cart. coord. in units of alat)
               a(1) = (  -0.500000   0.000000   0.500000 )  
               a(2) = (   0.000000   0.500000   0.500000 )  
               a(3) = (  -0.500000   0.500000   0.000000 )  

     reciprocal axes: (cart. coord. in units 2 pi/alat)
               b(1) = ( -1.000000 -1.000000  1.000000 )  
               b(2) = (  1.000000  1.000000  1.000000 )  
               b(3) = ( -1.000000  1.000000 -1.000000 )  


     PseudoPot. # 1 for Ge read from file:
     ../PP/Ge.pbe-dn-kjpaw_psl.0.2.2.UPF
     MD5 check sum: acf6dd3aa1b4e03129ff8bf786ac0282
     Pseudo is Projector augmented-wave + core cor, Zval = 14.0
     Generated using "atomic" code by A. Dal Corso v.5.0.2 svn rev. 9415
     Shape of augmentation charge: PSQ
     Using radial grid of 1207 points,  6 beta functions with: 
                l(1) =   0
                l(2) =   0
                l(3) =   1
                l(4) =   1
                l(5) =   2
                l(6) =   2
     Q(r) pseudized with 0 coefficients 


     atomic species   valence    mass     pseudopotential
        Ge            14.00    72.64000     Ge( 1.00)

     24 Sym. Ops. (no inversion) found



   Cartesian axes

     site n.     atom                  positions (alat units)
         1           Ge  tau(   1) = (   0.0000000   0.0000000   0.0000000  )
         2           Ge  tau(   2) = (  -0.2500000   0.2500000   0.2500000  )

     number of k points=    64
                       cart. coord. in units 2pi/alat
        k(    1) = (   0.0000000   0.0000000   0.0000000), wk =   0.0092593
        k(    2) = (   0.5000000  -0.5000000   0.5000000), wk =   0.0000000
        k(    3) = (  -0.1666667   0.1666667  -0.1666667), wk =   0.0185185
        k(    4) = (   0.3333333  -0.3333333   0.3333333), wk =   0.0000000
        k(    5) = (  -0.3333333   0.3333333  -0.3333333), wk =   0.0185185
        k(    6) = (   0.1666667  -0.1666667   0.1666667), wk =   0.0000000
        k(    7) = (   0.5000000  -0.5000000   0.5000000), wk =   0.0092593
        k(    8) = (   1.0000000  -1.0000000   1.0000000), wk =   0.0000000
        k(    9) = (   0.0000000   0.3333333   0.0000000), wk =   0.0555556
        k(   10) = (   0.5000000  -0.1666667   0.5000000), wk =   0.0000000
        k(   11) = (  -0.1666667   0.5000000  -0.1666667), wk =   0.0555556
        k(   12) = (   0.3333333   0.0000000   0.3333333), wk =   0.0000000
        k(   13) = (   0.6666667  -0.3333333   0.6666667), wk =   0.0555556
        k(   14) = (   1.1666667  -0.8333333   1.1666667), wk =   0.0000000
        k(   15) = (   0.5000000  -0.1666667   0.5000000), wk =   0.0555556
        k(   16) = (   1.0000000  -0.6666667   1.0000000), wk =   0.0000000
        k(   17) = (   0.3333333   0.0000000   0.3333333), wk =   0.0555556
        k(   18) = (   0.8333333  -0.5000000   0.8333333), wk =   0.0000000
        k(   19) = (   0.0000000   0.6666667   0.0000000), wk =   0.0555556
        k(   20) = (   0.5000000   0.1666667   0.5000000), wk =   0.0000000
        k(   21) = (   0.8333333  -0.1666667   0.8333333), wk =   0.0555556
        k(   22) = (   1.3333333  -0.6666667   1.3333333), wk =   0.0000000
        k(   23) = (   0.6666667  -0.0000000   0.6666667), wk =   0.0555556
        k(   24) = (   1.1666667  -0.5000000   1.1666667), wk =   0.0000000
        k(   25) = (   0.0000000  -1.0000000   0.0000000), wk =   0.0277778
        k(   26) = (   0.5000000  -1.5000000   0.5000000), wk =   0.0000000
        k(   27) = (   0.6666667  -0.3333333   1.0000000), wk =   0.1111111
        k(   28) = (   1.1666667  -0.8333333   1.5000000), wk =   0.0000000
        k(   29) = (   0.5000000  -0.1666667   0.8333333), wk =   0.0555556
        k(   30) = (   1.0000000  -0.6666667   1.3333333), wk =   0.0000000
        k(   31) = (  -0.3333333  -1.0000000   0.0000000), wk =   0.1111111
        k(   32) = (   0.1666667  -1.5000000   0.5000000), wk =   0.0000000
        k(   33) = (   0.1666667  -0.1666667  -0.1666667), wk =   0.0555556
        k(   34) = (   0.6666667  -0.6666667   0.3333333), wk =   0.0000000
        k(   35) = (   0.3333333  -0.3333333  -0.3333333), wk =   0.0555556
        k(   36) = (   0.8333333  -0.8333333   0.1666667), wk =   0.0000000
        k(   37) = (  -0.5000000   0.5000000   0.5000000), wk =   0.0277778
        k(   38) = (   0.0000000   0.0000000   1.0000000), wk =   0.0000000
        k(   39) = (   0.1666667  -0.5000000  -0.1666667), wk =   0.1111111
        k(   40) = (   0.6666667  -1.0000000   0.3333333), wk =   0.0000000
        k(   41) = (   0.1666667  -0.1666667  -0.5000000), wk =   0.0555556
        k(   42) = (   0.6666667  -0.6666667   0.0000000), wk =   0.0000000
        k(   43) = (  -0.6666667   0.3333333   0.6666667), wk =   0.1111111
        k(   44) = (  -0.1666667  -0.1666667   1.1666667), wk =   0.0000000
        k(   45) = (  -0.6666667   0.6666667   0.3333333), wk =   0.0555556
        k(   46) = (  -0.1666667   0.1666667   0.8333333), wk =   0.0000000
        k(   47) = (  -0.5000000   0.1666667   0.5000000), wk =   0.1111111
        k(   48) = (   0.0000000  -0.3333333   1.0000000), wk =   0.0000000
        k(   49) = (  -0.5000000   0.5000000   0.1666667), wk =   0.0555556
        k(   50) = (   0.0000000   0.0000000   0.6666667), wk =   0.0000000
        k(   51) = (  -0.3333333   0.0000000   0.3333333), wk =   0.0555556
        k(   52) = (   0.1666667  -0.5000000   0.8333333), wk =   0.0000000
        k(   53) = (  -0.8333333   0.1666667   0.8333333), wk =   0.1111111
        k(   54) = (  -0.3333333  -0.3333333   1.3333333), wk =   0.0000000
        k(   55) = (  -0.8333333   0.8333333   0.1666667), wk =   0.0555556
        k(   56) = (  -0.3333333   0.3333333   0.6666667), wk =   0.0000000
        k(   57) = (  -0.6666667   0.0000000   0.6666667), wk =   0.0555556
        k(   58) = (  -0.1666667  -0.5000000   1.1666667), wk =   0.0000000
        k(   59) = (  -1.0000000   0.3333333   0.6666667), wk =   0.1111111
        k(   60) = (  -0.5000000  -0.1666667   1.1666667), wk =   0.0000000
        k(   61) = (  -0.8333333   0.1666667   0.5000000), wk =   0.0555556
        k(   62) = (  -0.3333333  -0.3333333   1.0000000), wk =   0.0000000
        k(   63) = (   0.8333333   0.1666667  -0.5000000), wk =   0.1111111
        k(   64) = (   1.3333333  -0.3333333   0.0000000), wk =   0.0000000

     Dense  grid:     9377 G-vectors     FFT dimensions: (  30,  30,  30)

     Estimated max dynamical RAM per process >       4.33 MB

     Estimated total dynamical RAM >      51.98 MB

     Check: negative/imaginary core charge=   -0.000149    0.000000

     The potential is recalculated from file :
     calc/_ph0/germanium.save/charge-density.dat

     Starting wfcs are   18 atomic wfcs
     Checking if some PAW data can be deallocated... 

     Band Structure Calculation
     Davidson diagonalization with overlap

     ethr =  3.57E-11,  avg # of iterations = 10.7

     total cpu time spent up to now is       13.7 secs

     End of band structure calculation

          k = 0.0000 0.0000 0.0000 (  1211 PWs)   bands (ev):

   -17.2671 -17.2671 -17.2671 -17.2256 -17.2256 -17.0686 -17.0686 -17.0686
   -17.0506 -17.0506  -4.7053   6.7225   7.4419   7.4419

          k = 0.5000-0.5000 0.5000 (  1170 PWs)   bands (ev):

   -17.2862 -17.2862 -17.2524 -17.1935 -17.1935 -17.0881 -17.0881 -17.0853
   -17.0370 -17.0370  -2.8213   0.2089   6.1642   6.1642

          k =-0.1667 0.1667-0.1667 (  1173 PWs)   bands (ev):

   -17.2750 -17.2750 -17.2629 -17.2135 -17.2135 -17.0778 -17.0778 -17.0725
   -17.0432 -17.0432  -4.3965   4.2049   6.9753   6.9753

          k = 0.3333-0.3333 0.3333 (  1167 PWs)   bands (ev):

   -17.2837 -17.2837 -17.2559 -17.1982 -17.1982 -17.0865 -17.0865 -17.0808
   -17.0377 -17.0377  -3.5480   1.5633   6.3844   6.3844

          k =-0.3333 0.3333-0.3333 (  1167 PWs)   bands (ev):

   -17.2837 -17.2837 -17.2559 -17.1982 -17.1982 -17.0865 -17.0865 -17.0808
   -17.0377 -17.0377  -3.5480   1.5633   6.3844   6.3844

          k = 0.1667-0.1667 0.1667 (  1173 PWs)   bands (ev):

   -17.2750 -17.2750 -17.2629 -17.2135 -17.2135 -17.0778 -17.0778 -17.0725
   -17.0432 -17.0432  -4.3965   4.2049   6.9753   6.9753

          k = 0.5000-0.5000 0.5000 (  1170 PWs)   bands (ev):

   -17.2862 -17.2862 -17.2524 -17.1935 -17.1935 -17.0881 -17.0881 -17.0853
   -17.0370 -17.0370  -2.8213   0.2089   6.1642   6.1642

          k = 1.0000-1.0000 1.0000 (  1211 PWs)   bands (ev):

   -17.2671 -17.2671 -17.2671 -17.2256 -17.2256 -17.0686 -17.0686 -17.0686
   -17.0506 -17.0506  -4.7053   6.7225   7.4419   7.4419

          k = 0.0000 0.3333 0.0000 (  1171 PWs)   bands (ev):

   -17.2743 -17.2743 -17.2704 -17.2137 -17.1995 -17.1054 -17.0616 -17.0572
   -17.0572 -17.0402  -4.2901   4.0981   6.2913   6.2913

          k = 0.5000-0.1667 0.5000 (  1166 PWs)   bands (ev):

   -17.2967 -17.2907 -17.2357 -17.1922 -17.1777 -17.1075 -17.1015 -17.0883
   -17.0286 -17.0274  -2.9473   0.8032   4.4086   6.0998

          k =-0.1667 0.5000-0.1667 (  1164 PWs)   bands (ev):

   -17.2894 -17.2827 -17.2556 -17.1976 -17.1794 -17.1247 -17.0790 -17.0652
   -17.0432 -17.0311  -3.5986   2.0945   5.3498   5.7297

          k = 0.3333 0.0000 0.3333 (  1175 PWs)   bands (ev):

   -17.2854 -17.2838 -17.2529 -17.2057 -17.1930 -17.0985 -17.0905 -17.0649
   -17.0450 -17.0316  -3.8967   2.7419   5.1584   6.8088

          k = 0.6667-0.3333 0.6667 (  1153 PWs)   bands (ev):

   -17.2989 -17.2889 -17.2374 -17.1828 -17.1778 -17.1210 -17.0960 -17.0850
   -17.0333 -17.0227  -2.6515   0.3263   4.5740   5.6618

          k = 1.1667-0.8333 1.1667 (  1173 PWs)   bands (ev):

   -17.2750 -17.2750 -17.2629 -17.2135 -17.2135 -17.0778 -17.0778 -17.0725
   -17.0432 -17.0432  -4.3965   4.2049   6.9753   6.9753

          k = 0.5000-0.1667 0.5000 (  1166 PWs)   bands (ev):

   -17.2967 -17.2907 -17.2357 -17.1922 -17.1777 -17.1075 -17.1015 -17.0883
   -17.0286 -17.0274  -2.9473   0.8032   4.4086   6.0998

          k = 1.0000-0.6667 1.0000 (  1171 PWs)   bands (ev):

   -17.2743 -17.2743 -17.2704 -17.2137 -17.1995 -17.1054 -17.0616 -17.0572
   -17.0572 -17.0402  -4.2901   4.0981   6.2913   6.2913

          k = 0.3333 0.0000 0.3333 (  1175 PWs)   bands (ev):

   -17.2854 -17.2838 -17.2529 -17.2057 -17.1930 -17.0985 -17.0905 -17.0649
   -17.0450 -17.0316  -3.8967   2.7419   5.1584   6.8088

          k = 0.8333-0.5000 0.8333 (  1164 PWs)   bands (ev):

   -17.2894 -17.2827 -17.2556 -17.1976 -17.1794 -17.1247 -17.0790 -17.0652
   -17.0432 -17.0311  -3.5986   2.0945   5.3498   5.7297

          k = 0.0000 0.6667 0.0000 (  1174 PWs)   bands (ev):

   -17.2883 -17.2883 -17.2574 -17.1805 -17.1635 -17.1481 -17.0929 -17.0544
   -17.0362 -17.0362  -3.0714   1.3193   5.0889   5.0889

          k = 0.5000 0.1667 0.5000 (  1166 PWs)   bands (ev):

   -17.2967 -17.2907 -17.2357 -17.1922 -17.1777 -17.1075 -17.1015 -17.0883
   -17.0286 -17.0274  -2.9473   0.8032   4.4086   6.0998

          k = 0.8333-0.1667 0.8333 (  1155 PWs)   bands (ev):

   -17.3013 -17.2932 -17.2305 -17.1787 -17.1600 -17.1325 -17.1143 -17.0832
   -17.0283 -17.0198  -2.0987  -0.0461   4.0762   4.9425

          k = 1.3333-0.6667 1.3333 (  1167 PWs)   bands (ev):

   -17.2837 -17.2837 -17.2559 -17.1982 -17.1982 -17.0865 -17.0865 -17.0808
   -17.0377 -17.0377  -3.5480   1.5633   6.3844   6.3844

          k = 0.6667-0.0000 0.6667 (  1141 PWs)   bands (ev):

   -17.3075 -17.2944 -17.2190 -17.1599 -17.1527 -17.1479 -17.1267 -17.0941
   -17.0250 -17.0136  -1.9935  -0.1610   3.4375   5.3505

          k = 1.1667-0.5000 1.1667 (  1164 PWs)   bands (ev):

   -17.2894 -17.2827 -17.2556 -17.1976 -17.1794 -17.1247 -17.0790 -17.0652
   -17.0432 -17.0311  -3.5986   2.0945   5.3498   5.7297

          k = 0.0000-1.0000 0.0000 (  1162 PWs)   bands (ev):

   -17.2948 -17.2948 -17.2192 -17.2190 -17.1364 -17.1362 -17.0944 -17.0943
   -17.0264 -17.0264  -1.1428  -1.1426   4.6582   4.6582

          k = 0.5000-1.5000 0.5000 (  1170 PWs)   bands (ev):

   -17.2862 -17.2862 -17.2524 -17.1935 -17.1935 -17.0881 -17.0881 -17.0853
   -17.0370 -17.0370  -2.8213   0.2089   6.1642   6.1642

          k = 0.6667-0.3333 1.0000 (  1173 PWs)   bands (ev):

   -17.2982 -17.2949 -17.2331 -17.1818 -17.1573 -17.1464 -17.0966 -17.0869
   -17.0252 -17.0252  -2.7676   0.8173   4.1139   5.2427

          k = 1.1667-0.8333 1.5000 (  1164 PWs)   bands (ev):

   -17.2894 -17.2827 -17.2556 -17.1976 -17.1794 -17.1247 -17.0790 -17.0652
   -17.0432 -17.0311  -3.5986   2.0945   5.3498   5.7297

          k = 0.5000-0.1667 0.8333 (  1164 PWs)   bands (ev):

   -17.3058 -17.2975 -17.2149 -17.1684 -17.1519 -17.1490 -17.1179 -17.0993
   -17.0228 -17.0156  -1.9901  -0.1803   3.6974   4.8562

          k = 1.0000-0.6667 1.3333 (  1175 PWs)   bands (ev):

   -17.2854 -17.2838 -17.2529 -17.2057 -17.1930 -17.0985 -17.0905 -17.0649
   -17.0450 -17.0316  -3.8967   2.7419   5.1584   6.8088

          k =-0.3333-1.0000 0.0000 (  1166 PWs)   bands (ev):

   -17.3024 -17.3024 -17.1971 -17.1969 -17.1396 -17.1395 -17.1140 -17.1138
   -17.0183 -17.0183  -1.0879  -1.0877   4.0876   4.0881

          k = 0.1667-1.5000 0.5000 (  1166 PWs)   bands (ev):

   -17.2967 -17.2907 -17.2357 -17.1922 -17.1777 -17.1075 -17.1015 -17.0883
   -17.0286 -17.0274  -2.9473   0.8032   4.4086   6.0998

          k = 0.1667-0.1667-0.1667 (  1173 PWs)   bands (ev):

   -17.2750 -17.2750 -17.2629 -17.2135 -17.2135 -17.0778 -17.0778 -17.0725
   -17.0432 -17.0432  -4.3965   4.2049   6.9753   6.9753

          k = 0.6667-0.6667 0.3333 (  1153 PWs)   bands (ev):

   -17.2989 -17.2889 -17.2374 -17.1828 -17.1778 -17.1210 -17.0960 -17.0850
   -17.0333 -17.0227  -2.6515   0.3263   4.5740   5.6618

          k = 0.3333-0.3333-0.3333 (  1167 PWs)   bands (ev):

   -17.2837 -17.2837 -17.2559 -17.1982 -17.1982 -17.0865 -17.0865 -17.0808
   -17.0377 -17.0377  -3.5480   1.5633   6.3844   6.3844

          k = 0.8333-0.8333 0.1667 (  1155 PWs)   bands (ev):

   -17.3013 -17.2932 -17.2305 -17.1787 -17.1600 -17.1325 -17.1143 -17.0832
   -17.0283 -17.0198  -2.0987  -0.0461   4.0762   4.9425

          k =-0.5000 0.5000 0.5000 (  1170 PWs)   bands (ev):

   -17.2862 -17.2862 -17.2524 -17.1935 -17.1935 -17.0881 -17.0881 -17.0853
   -17.0370 -17.0370  -2.8213   0.2089   6.1642   6.1642

          k = 0.0000 0.0000 1.0000 (  1162 PWs)   bands (ev):

   -17.2948 -17.2948 -17.2192 -17.2190 -17.1364 -17.1362 -17.0944 -17.0943
   -17.0264 -17.0264  -1.1428  -1.1426   4.6582   4.6582

          k = 0.1667-0.5000-0.1667 (  1164 PWs)   bands (ev):

   -17.2894 -17.2827 -17.2556 -17.1976 -17.1794 -17.1247 -17.0790 -17.0652
   -17.0432 -17.0311  -3.5986   2.0945   5.3498   5.7297

          k = 0.6667-1.0000 0.3333 (  1173 PWs)   bands (ev):

   -17.2982 -17.2949 -17.2331 -17.1818 -17.1573 -17.1464 -17.0966 -17.0869
   -17.0252 -17.0252  -2.7676   0.8173   4.1139   5.2427

          k = 0.1667-0.1667-0.5000 (  1164 PWs)   bands (ev):

   -17.2894 -17.2827 -17.2556 -17.1976 -17.1794 -17.1247 -17.0790 -17.0652
   -17.0432 -17.0311  -3.5986   2.0945   5.3498   5.7297

          k = 0.6667-0.6667 0.0000 (  1141 PWs)   bands (ev):

   -17.3075 -17.2944 -17.2190 -17.1599 -17.1527 -17.1479 -17.1267 -17.0941
   -17.0250 -17.0136  -1.9935  -0.1610   3.4375   5.3505

          k =-0.6667 0.3333 0.6667 (  1153 PWs)   bands (ev):

   -17.2989 -17.2889 -17.2374 -17.1828 -17.1778 -17.1210 -17.0960 -17.0850
   -17.0333 -17.0227  -2.6515   0.3263   4.5740   5.6618

          k =-0.1667-0.1667 1.1667 (  1155 PWs)   bands (ev):

   -17.3013 -17.2932 -17.2305 -17.1787 -17.1600 -17.1325 -17.1143 -17.0832
   -17.0283 -17.0198  -2.0987  -0.0461   4.0762   4.9425

          k =-0.6667 0.6667 0.3333 (  1153 PWs)   bands (ev):

   -17.2989 -17.2889 -17.2374 -17.1828 -17.1778 -17.1210 -17.0960 -17.0850
   -17.0333 -17.0227  -2.6515   0.3263   4.5740   5.6618

          k =-0.1667 0.1667 0.8333 (  1155 PWs)   bands (ev):

   -17.3013 -17.2932 -17.2305 -17.1787 -17.1600 -17.1325 -17.1143 -17.0832
   -17.0283 -17.0198  -2.0987  -0.0461   4.0762   4.9425

          k =-0.5000 0.1667 0.5000 (  1166 PWs)   bands (ev):

   -17.2967 -17.2907 -17.2357 -17.1922 -17.1777 -17.1075 -17.1015 -17.0883
   -17.0286 -17.0274  -2.9473   0.8032   4.4086   6.0998

          k = 0.0000-0.3333 1.0000 (  1166 PWs)   bands (ev):

   -17.3024 -17.3024 -17.1971 -17.1969 -17.1396 -17.1395 -17.1140 -17.1138
   -17.0183 -17.0183  -1.0879  -1.0877   4.0876   4.0881

          k =-0.5000 0.5000 0.1667 (  1166 PWs)   bands (ev):

   -17.2967 -17.2907 -17.2357 -17.1922 -17.1777 -17.1075 -17.1015 -17.0883
   -17.0286 -17.0274  -2.9473   0.8032   4.4086   6.0998

          k = 0.0000 0.0000 0.6667 (  1174 PWs)   bands (ev):

   -17.2883 -17.2883 -17.2574 -17.1805 -17.1635 -17.1481 -17.0929 -17.0544
   -17.0362 -17.0362  -3.0714   1.3193   5.0889   5.0889

          k =-0.3333 0.0000 0.3333 (  1175 PWs)   bands (ev):

   -17.2854 -17.2838 -17.2529 -17.2057 -17.1930 -17.0985 -17.0905 -17.0649
   -17.0450 -17.0316  -3.8967   2.7419   5.1584   6.8088

          k = 0.1667-0.5000 0.8333 (  1164 PWs)   bands (ev):

   -17.3058 -17.2975 -17.2149 -17.1684 -17.1519 -17.1490 -17.1179 -17.0993
   -17.0228 -17.0156  -1.9901  -0.1803   3.6974   4.8562

          k =-0.8333 0.1667 0.8333 (  1155 PWs)   bands (ev):

   -17.3013 -17.2932 -17.2305 -17.1787 -17.1600 -17.1325 -17.1143 -17.0832
   -17.0283 -17.0198  -2.0987  -0.0461   4.0762   4.9425

          k =-0.3333-0.3333 1.3333 (  1153 PWs)   bands (ev):

   -17.2989 -17.2889 -17.2374 -17.1828 -17.1778 -17.1210 -17.0960 -17.0850
   -17.0333 -17.0227  -2.6515   0.3263   4.5740   5.6618

          k =-0.8333 0.8333 0.1667 (  1155 PWs)   bands (ev):

   -17.3013 -17.2932 -17.2305 -17.1787 -17.1600 -17.1325 -17.1143 -17.0832
   -17.0283 -17.0198  -2.0987  -0.0461   4.0762   4.9425

          k =-0.3333 0.3333 0.6667 (  1153 PWs)   bands (ev):

   -17.2989 -17.2889 -17.2374 -17.1828 -17.1778 -17.1210 -17.0960 -17.0850
   -17.0333 -17.0227  -2.6515   0.3263   4.5740   5.6618

          k =-0.6667 0.0000 0.6667 (  1141 PWs)   bands (ev):

   -17.3075 -17.2944 -17.2190 -17.1599 -17.1527 -17.1479 -17.1267 -17.0941
   -17.0250 -17.0136  -1.9935  -0.1610   3.4375   5.3505

          k =-0.1667-0.5000 1.1667 (  1164 PWs)   bands (ev):

   -17.3058 -17.2975 -17.2149 -17.1684 -17.1519 -17.1490 -17.1179 -17.0993
   -17.0228 -17.0156  -1.9901  -0.1803   3.6974   4.8562

          k =-1.0000 0.3333 0.6667 (  1173 PWs)   bands (ev):

   -17.2982 -17.2949 -17.2331 -17.1818 -17.1573 -17.1464 -17.0966 -17.0869
   -17.0252 -17.0252  -2.7676   0.8173   4.1139   5.2427

          k =-0.5000-0.1667 1.1667 (  1164 PWs)   bands (ev):

   -17.3058 -17.2975 -17.2149 -17.1684 -17.1519 -17.1490 -17.1179 -17.0993
   -17.0228 -17.0156  -1.9901  -0.1803   3.6974   4.8562

          k =-0.8333 0.1667 0.5000 (  1164 PWs)   bands (ev):

   -17.3058 -17.2975 -17.2149 -17.1684 -17.1519 -17.1490 -17.1179 -17.0993
   -17.0228 -17.0156  -1.9901  -0.1803   3.6974   4.8562

          k =-0.3333-0.3333 1.0000 (  1141 PWs)   bands (ev):

   -17.3075 -17.2944 -17.2190 -17.1599 -17.1527 -17.1479 -17.1267 -17.0941
   -17.0250 -17.0136  -1.9935  -0.1610   3.4375   5.3505

          k = 0.8333 0.1667-0.5000 (  1164 PWs)   bands (ev):

   -17.3058 -17.2975 -17.2149 -17.1684 -17.1519 -17.1490 -17.1179 -17.0993
   -17.0228 -17.0156  -1.9901  -0.1803   3.6974   4.8562

          k = 1.3333-0.3333 0.0000 (  1173 PWs)   bands (ev):

   -17.2982 -17.2949 -17.2331 -17.1818 -17.1573 -17.1464 -17.0966 -17.0869
   -17.0252 -17.0252  -2.7676   0.8173   4.1139   5.2427

     highest occupied level (ev):     7.4419

     Writing output data file germanium.save/

     YOU NEED TO PUT HERE SOME TITLE :)                                         

     bravais-lattice index     =            2
     lattice parameter (alat)  =      11.0000  a.u.
     unit-cell volume          =     332.7500 (a.u.)^3
     number of atoms/cell      =            2
     number of atomic types    =            1
     kinetic-energy cut-off    =      35.0000  Ry
     charge density cut-off    =     140.0000  Ry
     convergence threshold     =      5.0E-14
     beta                      =       0.7000
     number of iterations used =            4
     Exchange-correlation      = PBE ( 1  4  3  4 0 0)


     celldm(1)=   11.00000  celldm(2)=    0.00000  celldm(3)=    0.00000
     celldm(4)=    0.00000  celldm(5)=    0.00000  celldm(6)=    0.00000

     crystal axes: (cart. coord. in units of alat)
               a(1) = ( -0.5000  0.0000  0.5000 )  
               a(2) = (  0.0000  0.5000  0.5000 )  
               a(3) = ( -0.5000  0.5000  0.0000 )  

     reciprocal axes: (cart. coord. in units 2 pi/alat)
               b(1) = ( -1.0000 -1.0000  1.0000 )  
               b(2) = (  1.0000  1.0000  1.0000 )  
               b(3) = ( -1.0000  1.0000 -1.0000 )  


     Atoms inside the unit cell: 

     Cartesian axes

     site n.  atom      mass           positions (alat units)
        1     Ge  72.6400   tau(    1) = (    0.00000    0.00000    0.00000  )
        2     Ge  72.6400   tau(    2) = (   -0.25000    0.25000    0.25000  )

     Computing dynamical matrix for 
                    q = (   0.5000000  -0.5000000   0.5000000 )
 
      7 Sym.Ops. (with q -> -q+G )


     G cutoff =  429.0952  (    780 G-vectors)     FFT grid: ( 30, 30, 30)
     number of k points=    64

     PseudoPot. # 1 for Ge read from file:
     ../PP/Ge.pbe-dn-kjpaw_psl.0.2.2.UPF
     MD5 check sum: acf6dd3aa1b4e03129ff8bf786ac0282
     Pseudo is Projector augmented-wave + core cor, Zval = 14.0
     Generated using "atomic" code by A. Dal Corso v.5.0.2 svn rev. 9415
     Shape of augmentation charge: PSQ
     Using radial grid of 1207 points,  6 beta functions with: 
                l(1) =   0
                l(2) =   0
                l(3) =   1
                l(4) =   1
                l(5) =   2
                l(6) =   2
     Q(r) pseudized with 0 coefficients 


     Mode symmetry, C_3v (3m)   point group:


     Atomic displacements:
     There are   4 irreducible representations

     Representation     1      1 modes -A_1  L_1  To be done

     Representation     2      1 modes -A_1  L_1  To be done

     Representation     3      2 modes -E    L_3  To be done

     Representation     4      2 modes -E    L_3  To be done



     Alpha used in Ewald sum =   1.3000
     PHONON       :  3m42.84s CPU     3m53.03s WALL



     Representation #  1 mode #   1

     Self-consistent Calculation

      iter #   1 total cpu time :   233.6 secs   av.it.:   7.8
      thresh= 1.000E-02 alpha_mix =  0.700 |ddv_scf|^2 =  6.395E-04

      iter #   2 total cpu time :   234.2 secs   av.it.:   8.9
      thresh= 2.529E-03 alpha_mix =  0.700 |ddv_scf|^2 =  1.656E-03

      iter #   3 total cpu time :   234.8 secs   av.it.:   8.1
      thresh= 4.070E-03 alpha_mix =  0.700 |ddv_scf|^2 =  3.390E-06

      iter #   4 total cpu time :   235.5 secs   av.it.:   9.3
      thresh= 1.841E-04 alpha_mix =  0.700 |ddv_scf|^2 =  1.086E-06

      iter #   5 total cpu time :   236.1 secs   av.it.:   8.9
      thresh= 1.042E-04 alpha_mix =  0.700 |ddv_scf|^2 =  9.151E-08

      iter #   6 total cpu time :   236.8 secs   av.it.:   9.3
      thresh= 3.025E-05 alpha_mix =  0.700 |ddv_scf|^2 =  2.194E-09

      iter #   7 total cpu time :   237.4 secs   av.it.:  10.0
      thresh= 4.684E-06 alpha_mix =  0.700 |ddv_scf|^2 =  6.579E-11

      iter #   8 total cpu time :   238.1 secs   av.it.:  10.1
      thresh= 8.111E-07 alpha_mix =  0.700 |ddv_scf|^2 =  2.078E-11

      iter #   9 total cpu time :   238.8 secs   av.it.:  10.0
      thresh= 4.559E-07 alpha_mix =  0.700 |ddv_scf|^2 =  1.142E-12

      iter #  10 total cpu time :   239.5 secs   av.it.:   9.2
      thresh= 1.069E-07 alpha_mix =  0.700 |ddv_scf|^2 =  6.655E-13

      iter #  11 total cpu time :   240.1 secs   av.it.:   8.8
[...]
               a(3) = (  -0.500000   0.500000   0.000000 )  

     reciprocal axes: (cart. coord. in units 2 pi/alat)
               b(1) = ( -1.000000 -1.000000  1.000000 )  
               b(2) = (  1.000000  1.000000  1.000000 )  
               b(3) = ( -1.000000  1.000000 -1.000000 )  


     PseudoPot. # 1 for Ge read from file:
     ../PP/Ge.pbe-dn-kjpaw_psl.0.2.2.UPF
     MD5 check sum: acf6dd3aa1b4e03129ff8bf786ac0282
     Pseudo is Projector augmented-wave + core cor, Zval = 14.0
     Generated using "atomic" code by A. Dal Corso v.5.0.2 svn rev. 9415
     Shape of augmentation charge: PSQ
     Using radial grid of 1207 points,  6 beta functions with: 
                l(1) =   0
                l(2) =   0
                l(3) =   1
                l(4) =   1
                l(5) =   2
                l(6) =   2
     Q(r) pseudized with 0 coefficients 


     atomic species   valence    mass     pseudopotential
        Ge            14.00    72.64000     Ge( 1.00)

     24 Sym. Ops. (no inversion) found



   Cartesian axes

     site n.     atom                  positions (alat units)
         1           Ge  tau(   1) = (   0.0000000   0.0000000   0.0000000  )
         2           Ge  tau(   2) = (  -0.2500000   0.2500000   0.2500000  )

     number of k points=   116

     Number of k-points >= 100: set verbosity='high' to print them.

     Dense  grid:     9377 G-vectors     FFT dimensions: (  30,  30,  30)

     Estimated max dynamical RAM per process >       4.35 MB

     Estimated total dynamical RAM >      52.22 MB

     Check: negative/imaginary core charge=   -0.000149    0.000000

     The potential is recalculated from file :
     calc/_ph0/germanium.save/charge-density.dat

     Starting wfcs are   18 atomic wfcs
     Checking if some PAW data can be deallocated... 

     Band Structure Calculation
     Davidson diagonalization with overlap

     ethr =  3.57E-11,  avg # of iterations = 10.9

     total cpu time spent up to now is      226.8 secs

     End of band structure calculation

     Number of k-points >= 100: set verbosity='high' to print the bands.

     highest occupied level (ev):     7.4419

     Writing output data file germanium.save/

     YOU NEED TO PUT HERE SOME TITLE :)                                         

     bravais-lattice index     =            2
     lattice parameter (alat)  =      11.0000  a.u.
     unit-cell volume          =     332.7500 (a.u.)^3
     number of atoms/cell      =            2
     number of atomic types    =            1
     kinetic-energy cut-off    =      35.0000  Ry
     charge density cut-off    =     140.0000  Ry
     convergence threshold     =      5.0E-14
     beta                      =       0.7000
     number of iterations used =            4
     Exchange-correlation      = PBE ( 1  4  3  4 0 0)


     celldm(1)=   11.00000  celldm(2)=    0.00000  celldm(3)=    0.00000
     celldm(4)=    0.00000  celldm(5)=    0.00000  celldm(6)=    0.00000

     crystal axes: (cart. coord. in units of alat)
               a(1) = ( -0.5000  0.0000  0.5000 )  
               a(2) = (  0.0000  0.5000  0.5000 )  
               a(3) = ( -0.5000  0.5000  0.0000 )  

     reciprocal axes: (cart. coord. in units 2 pi/alat)
               b(1) = ( -1.0000 -1.0000  1.0000 )  
               b(2) = (  1.0000  1.0000  1.0000 )  
               b(3) = ( -1.0000  1.0000 -1.0000 )  


     Atoms inside the unit cell: 

     Cartesian axes

     site n.  atom      mass           positions (alat units)
        1     Ge  72.6400   tau(    1) = (    0.00000    0.00000    0.00000  )
        2     Ge  72.6400   tau(    2) = (   -0.25000    0.25000    0.25000  )

     Computing dynamical matrix for 
                    q = (  -0.5000000  -1.0000000   0.0000000 )
 
      4 Sym.Ops. (no q -> -q+G )


     G cutoff =  429.0952  (    780 G-vectors)     FFT grid: ( 30, 30, 30)
     number of k points=   116

     PseudoPot. # 1 for Ge read from file:
     ../PP/Ge.pbe-dn-kjpaw_psl.0.2.2.UPF
     MD5 check sum: acf6dd3aa1b4e03129ff8bf786ac0282
     Pseudo is Projector augmented-wave + core cor, Zval = 14.0
     Generated using "atomic" code by A. Dal Corso v.5.0.2 svn rev. 9415
     Shape of augmentation charge: PSQ
     Using radial grid of 1207 points,  6 beta functions with: 
                l(1) =   0
                l(2) =   0
                l(3) =   1
                l(4) =   1
                l(5) =   2
                l(6) =   2
     Q(r) pseudized with 0 coefficients 


     Mode symmetry, S_4 (-4)    point group:


     Atomic displacements:
     There are   6 irreducible representations

     Representation     1      1 modes -A    W_1  To be done

     Representation     2      1 modes -B    W_3  To be done

     Representation     3      1 modes -B    W_3  To be done

     Representation     4      1 modes -E    W_4  To be done

     Representation     5      1 modes -E*   W_2  To be done

     Representation     6      1 modes -E*   W_2  To be done



     Alpha used in Ewald sum =   1.3000
     PHONON       :     1h11m CPU       11h 1m WALL

      14h


     Representation #  1 mode #   1

     Self-consistent Calculation

      iter #   1 total cpu time :  4475.1 secs   av.it.:   7.4
      thresh= 1.000E-02 alpha_mix =  0.700 |ddv_scf|^2 =  1.972E-04

      iter #   2 total cpu time :  4476.3 secs   av.it.:   9.0
      thresh= 1.404E-03 alpha_mix =  0.700 |ddv_scf|^2 =  2.403E-04

      iter #   3 total cpu time :  4477.3 secs   av.it.:   8.8
      thresh= 1.550E-03 alpha_mix =  0.700 |ddv_scf|^2 =  3.245E-06

      iter #   4 total cpu time :  4478.4 secs   av.it.:   9.8
      thresh= 1.801E-04 alpha_mix =  0.700 |ddv_scf|^2 =  6.401E-08

      iter #   5 total cpu time :  4479.5 secs   av.it.:  10.3
      thresh= 2.530E-05 alpha_mix =  0.700 |ddv_scf|^2 =  3.048E-09

      iter #   6 total cpu time :  4480.7 secs   av.it.:  10.3
      thresh= 5.521E-06 alpha_mix =  0.700 |ddv_scf|^2 =  1.281E-10

      iter #   7 total cpu time :  4481.8 secs   av.it.:   9.8
      thresh= 1.132E-06 alpha_mix =  0.700 |ddv_scf|^2 =  2.696E-12

      iter #   8 total cpu time :  4482.9 secs   av.it.:  10.0
      thresh= 1.642E-07 alpha_mix =  0.700 |ddv_scf|^2 =  4.244E-14

     End of self-consistent calculation

     Convergence has been achieved 


     Representation #  2 mode #   2

     Self-consistent Calculation

      iter #   1 total cpu time :  4483.9 secs   av.it.:   7.6
      thresh= 1.000E-02 alpha_mix =  0.700 |ddv_scf|^2 =  1.765E-04

      iter #   2 total cpu time :  4484.9 secs   av.it.:   9.2
      thresh= 1.328E-03 alpha_mix =  0.700 |ddv_scf|^2 =  9.513E-05

      iter #   3 total cpu time :  4486.0 secs   av.it.:   8.9
      thresh= 9.754E-04 alpha_mix =  0.700 |ddv_scf|^2 =  1.988E-07

      iter #   4 total cpu time :  4487.1 secs   av.it.:   9.6
      thresh= 4.459E-05 alpha_mix =  0.700 |ddv_scf|^2 =  7.124E-09

      iter #   5 total cpu time :  4488.1 secs   av.it.:   9.6
      thresh= 8.440E-06 alpha_mix =  0.700 |ddv_scf|^2 =  1.820E-10

      iter #   6 total cpu time :  4489.2 secs   av.it.:   9.0
      thresh= 1.349E-06 alpha_mix =  0.700 |ddv_scf|^2 =  3.703E-12

      iter #   7 total cpu time :  4490.2 secs   av.it.:   9.4
      thresh= 1.924E-07 alpha_mix =  0.700 |ddv_scf|^2 =  1.013E-13

      iter #   8 total cpu time :  4491.6 secs   av.it.:   8.9
      thresh= 3.183E-08 alpha_mix =  0.700 |ddv_scf|^2 =  2.588E-15

     End of self-consistent calculation

     Convergence has been achieved 


     Representation #  3 mode #   3

     Self-consistent Calculation

      iter #   1 total cpu time :  4492.9 secs   av.it.:   7.7
      thresh= 1.000E-02 alpha_mix =  0.700 |ddv_scf|^2 =  1.239E-04

      iter #   2 total cpu time :  4494.4 secs   av.it.:   9.1
      thresh= 1.113E-03 alpha_mix =  0.700 |ddv_scf|^2 =  5.935E-05

      iter #   3 total cpu time :  4495.8 secs   av.it.:   8.9
      thresh= 7.704E-04 alpha_mix =  0.700 |ddv_scf|^2 =  1.834E-07

      iter #   4 total cpu time :  4497.4 secs   av.it.:   9.7
      thresh= 4.282E-05 alpha_mix =  0.700 |ddv_scf|^2 =  1.135E-08

      iter #   5 total cpu time :  4498.9 secs   av.it.:   9.6
      thresh= 1.065E-05 alpha_mix =  0.700 |ddv_scf|^2 =  1.703E-10

      iter #   6 total cpu time :  4500.3 secs   av.it.:   9.2
      thresh= 1.305E-06 alpha_mix =  0.700 |ddv_scf|^2 =  2.765E-12

      iter #   7 total cpu time :  4501.6 secs   av.it.:   9.1
      thresh= 1.663E-07 alpha_mix =  0.700 |ddv_scf|^2 =  6.589E-14

      iter #   8 total cpu time :  4502.6 secs   av.it.:   8.8
      thresh= 2.567E-08 alpha_mix =  0.700 |ddv_scf|^2 =  3.720E-15

     End of self-consistent calculation

     Convergence has been achieved 


     Representation #  4 mode #   4

     Self-consistent Calculation

      iter #   1 total cpu time :  4503.6 secs   av.it.:   7.4
      thresh= 1.000E-02 alpha_mix =  0.700 |ddv_scf|^2 =  1.973E-04

      iter #   2 total cpu time :  4504.7 secs   av.it.:   9.0
      thresh= 1.405E-03 alpha_mix =  0.700 |ddv_scf|^2 =  2.403E-04

      iter #   3 total cpu time :  4505.7 secs   av.it.:   8.8
      thresh= 1.550E-03 alpha_mix =  0.700 |ddv_scf|^2 =  3.252E-06

      iter #   4 total cpu time :  4507.2 secs   av.it.:   9.8
      thresh= 1.803E-04 alpha_mix =  0.700 |ddv_scf|^2 =  6.463E-08

      iter #   5 total cpu time :  4508.7 secs   av.it.:  10.3
      thresh= 2.542E-05 alpha_mix =  0.700 |ddv_scf|^2 =  3.046E-09

      iter #   6 total cpu time :  4509.9 secs   av.it.:  10.3
      thresh= 5.519E-06 alpha_mix =  0.700 |ddv_scf|^2 =  1.307E-10

      iter #   7 total cpu time :  4511.1 secs   av.it.:   9.8
      thresh= 1.143E-06 alpha_mix =  0.700 |ddv_scf|^2 =  2.798E-12

      iter #   8 total cpu time :  4512.3 secs   av.it.:  10.0
      thresh= 1.673E-07 alpha_mix =  0.700 |ddv_scf|^2 =  4.120E-14

     End of self-consistent calculation

     Convergence has been achieved 


     Representation #  5 mode #   5

     Self-consistent Calculation

      iter #   1 total cpu time :  4513.3 secs   av.it.:   7.7
      thresh= 1.000E-02 alpha_mix =  0.700 |ddv_scf|^2 =  1.239E-04

      iter #   2 total cpu time :  4514.4 secs   av.it.:   9.1
      thresh= 1.113E-03 alpha_mix =  0.700 |ddv_scf|^2 =  5.953E-05

      iter #   3 total cpu time :  4515.4 secs   av.it.:   8.9
      thresh= 7.715E-04 alpha_mix =  0.700 |ddv_scf|^2 =  1.829E-07

      iter #   4 total cpu time :  4516.6 secs   av.it.:   9.6
      thresh= 4.277E-05 alpha_mix =  0.700 |ddv_scf|^2 =  1.126E-08

      iter #   5 total cpu time :  4517.7 secs   av.it.:   9.6
      thresh= 1.061E-05 alpha_mix =  0.700 |ddv_scf|^2 =  1.638E-10

      iter #   6 total cpu time :  4518.7 secs   av.it.:   9.2
      thresh= 1.280E-06 alpha_mix =  0.700 |ddv_scf|^2 =  2.754E-12

      iter #   7 total cpu time :  4519.8 secs   av.it.:   9.1
      thresh= 1.660E-07 alpha_mix =  0.700 |ddv_scf|^2 =  8.058E-14

      iter #   8 total cpu time :  4520.8 secs   av.it.:   8.8
      thresh= 2.839E-08 alpha_mix =  0.700 |ddv_scf|^2 =  4.361E-15

     End of self-consistent calculation

     Convergence has been achieved 


     Representation #  6 mode #   6

     Self-consistent Calculation

      iter #   1 total cpu time :  4521.9 secs   av.it.:   7.6
      thresh= 1.000E-02 alpha_mix =  0.700 |ddv_scf|^2 =  1.767E-04

      iter #   2 total cpu time :  4522.9 secs   av.it.:   9.2
      thresh= 1.329E-03 alpha_mix =  0.700 |ddv_scf|^2 =  9.554E-05

      iter #   3 total cpu time :  4523.9 secs   av.it.:   8.9
      thresh= 9.774E-04 alpha_mix =  0.700 |ddv_scf|^2 =  2.033E-07

      iter #   4 total cpu time :  4525.0 secs   av.it.:   9.6
      thresh= 4.509E-05 alpha_mix =  0.700 |ddv_scf|^2 =  7.708E-09

      iter #   5 total cpu time :  4526.1 secs   av.it.:   9.5
      thresh= 8.779E-06 alpha_mix =  0.700 |ddv_scf|^2 =  2.019E-10

      iter #   6 total cpu time :  4527.2 secs   av.it.:   9.0
      thresh= 1.421E-06 alpha_mix =  0.700 |ddv_scf|^2 =  3.651E-12

      iter #   7 total cpu time :  4528.3 secs   av.it.:   9.4
      thresh= 1.911E-07 alpha_mix =  0.700 |ddv_scf|^2 =  1.131E-13

      iter #   8 total cpu time :  4529.3 secs   av.it.:   8.9
      thresh= 3.363E-08 alpha_mix =  0.700 |ddv_scf|^2 =  2.922E-15

     End of self-consistent calculation

     Convergence has been achieved 
 
     Number of q in the star =    6
     List of q in the star:
          1  -0.500000000  -1.000000000   0.000000000
          2   0.000000000   1.000000000  -0.500000000
          3   0.000000000   1.000000000   0.500000000
          4   0.500000000   1.000000000   0.000000000
          5   0.000000000  -0.500000000  -1.000000000
          6   0.000000000   0.500000000  -1.000000000

     Diagonalizing the dynamical matrix

     q = (   -0.500000000  -1.000000000   0.000000000 ) 

 **************************************************************************
     freq (    1) =       3.653708 [THz] =     121.874592 [cm-1]
     freq (    2) =       3.671793 [THz] =     122.477831 [cm-1]
     freq (    3) =       5.597175 [THz] =     186.701660 [cm-1]
     freq (    4) =       5.662193 [THz] =     188.870416 [cm-1]
     freq (    5) =       7.175171 [THz] =     239.337941 [cm-1]
     freq (    6) =       7.181204 [THz] =     239.539167 [cm-1]
 **************************************************************************

     Mode symmetry, S_4 (-4)    point group:

     freq (  1 -  1) =        121.9  [cm-1]   --> E*   W_2           
     freq (  2 -  2) =        122.5  [cm-1]   --> B    W_3           
     freq (  3 -  3) =        186.7  [cm-1]   --> A    W_1           
     freq (  4 -  4) =        188.9  [cm-1]   --> E    W_4           
     freq (  5 -  5) =        239.3  [cm-1]   --> B    W_3           
     freq (  6 -  6) =        239.5  [cm-1]   --> E*   W_2           
 
     init_run     :      1.97s CPU      2.28s WALL (      28 calls)
     electrons    :    217.79s CPU    222.97s WALL (      28 calls)

     Called by init_run:
     wfcinit      :      0.00s CPU      0.00s WALL (      28 calls)
     potinit      :      1.04s CPU      1.24s WALL (      28 calls)
     hinit0       :      0.77s CPU      0.80s WALL (      28 calls)

     Called by electrons:
     c_bands      :    217.78s CPU    222.97s WALL (      28 calls)
     v_of_rho     :      0.03s CPU      0.03s WALL (      29 calls)
     newd         :      0.04s CPU      0.07s WALL (      29 calls)
     PAW_pot      :      1.04s CPU      1.26s WALL (      29 calls)

     Called by c_bands:
     init_us_2    :      6.01s CPU      6.39s WALL (  270828 calls)
     cegterg      :    198.98s CPU    203.47s WALL (    6870 calls)

     Called by sum_band:

     Called by *egterg:
     h_psi        :   2593.44s CPU   2696.23s WALL ( 3654301 calls)
     s_psi        :    221.68s CPU    230.99s WALL ( 7452857 calls)
     g_psi        :      0.24s CPU      0.23s WALL (   76285 calls)
     cdiaghg      :    111.34s CPU    114.03s WALL (   83155 calls)

     Called by h_psi:
     h_psi:pot    :   2587.38s CPU   2689.87s WALL ( 3654301 calls)
     h_psi:calbec :    212.45s CPU    219.93s WALL ( 3654301 calls)
     vloc_psi     :   2257.14s CPU   2347.19s WALL ( 3654301 calls)
     add_vuspsi   :    109.44s CPU    114.32s WALL ( 3654301 calls)

     General routines
     calbec       :    460.97s CPU    479.40s WALL ( 7843525 calls)
     fft          :      2.17s CPU      2.26s WALL (   29992 calls)
     ffts         :      1.27s CPU      1.28s WALL (   21936 calls)
     fftw         :   2608.43s CPU   2719.63s WALL (78643456 calls)
     davcio       :     13.83s CPU     20.87s WALL ( 1209916 calls)
 
     Parallel routines
     fft_scatt_xy :    163.54s CPU    170.58s WALL (78695384 calls)
     fft_scatt_yz :   1622.79s CPU   1692.07s WALL (78695384 calls)
 
     PHONON       :     1h12m CPU       12h 1m WALL

      15h
     INITIALIZATION: 
     phq_setup    :      0.34s CPU      0.35s WALL (      29 calls)
     phq_init     :     32.47s CPU     33.28s WALL (      29 calls)
 
     phq_init     :     32.47s CPU     33.28s WALL (      29 calls)
     set_drhoc    :      0.50s CPU      0.51s WALL (      87 calls)
     init_vloc    :      0.03s CPU      0.02s WALL (      29 calls)
     init_us_1    :      0.66s CPU      0.70s WALL (      29 calls)
     newd         :      0.04s CPU      0.07s WALL (      29 calls)
     dvanqq       :      0.77s CPU      0.78s WALL (      29 calls)
     drho         :     23.89s CPU     24.57s WALL (      29 calls)
 
     DYNAMICAL MATRIX:
     dynmat0      :      5.56s CPU      5.61s WALL (      29 calls)
     phqscf       :   4064.56s CPU   4252.46s WALL (      29 calls)
     dynmatrix    :      0.02s CPU      0.05s WALL (      29 calls)
 
     phqscf       :   4064.56s CPU   4252.46s WALL (      29 calls)
     solve_linter :   4054.93s CPU   4242.06s WALL (     160 calls)
     drhodv       :      8.92s CPU      9.45s WALL (     160 calls)
 
     dynmat0      :      5.56s CPU      5.61s WALL (      29 calls)
     dynmat_us    :      5.13s CPU      5.18s WALL (      29 calls)
     d2ionq       :      0.02s CPU      0.01s WALL (      29 calls)
     dynmatcc     :      0.36s CPU      0.36s WALL (      29 calls)
 
     dynmat_us    :      5.13s CPU      5.18s WALL (      29 calls)
     addusdynmat  :      0.00s CPU      0.00s WALL (      29 calls)
 
     phqscf       :   4064.56s CPU   4252.46s WALL (      29 calls)
     solve_linter :   4054.93s CPU   4242.06s WALL (     160 calls)
 
     solve_linter :   4054.93s CPU   4242.06s WALL (     160 calls)
     dvqpsi_us    :     31.63s CPU     32.86s WALL (   20802 calls)
     ortho        :     44.44s CPU     47.52s WALL (  234232 calls)
     cgsolve      :   3248.27s CPU   3376.67s WALL (  234232 calls)
     incdrhoscf   :    270.28s CPU    285.35s WALL (  234232 calls)
     addusddens   :      5.77s CPU      5.96s WALL (    1888 calls)
     vpsifft      :    208.81s CPU    219.19s WALL (  212902 calls)
     dv_of_drho   :      1.32s CPU      1.34s WALL (    1881 calls)
     mix_pot      :      1.00s CPU      1.68s WALL (    1740 calls)
     psymdvscf    :      5.30s CPU      5.46s WALL (    1269 calls)
     newdq        :      5.70s CPU      5.59s WALL (    1740 calls)
     adddvscf     :     12.12s CPU     13.05s WALL (  213430 calls)
     drhodvus     :      0.06s CPU      0.08s WALL (     160 calls)
 
     dvqpsi_us    :     31.63s CPU     32.86s WALL (   20802 calls)
     dvqpsi_us_on :      9.58s CPU     10.03s WALL (   20802 calls)
 
     cgsolve      :   3248.27s CPU   3376.67s WALL (  234232 calls)
     ch_psi       :   3131.72s CPU   3256.19s WALL ( 3564276 calls)
 
     ch_psi       :   3131.72s CPU   3256.19s WALL ( 3564276 calls)
     h_psi        :   2593.44s CPU   2696.23s WALL ( 3654301 calls)
     last         :    482.20s CPU    501.39s WALL ( 3564276 calls)
 
     h_psi        :   2593.44s CPU   2696.23s WALL ( 3654301 calls)
     add_vuspsi   :    109.44s CPU    114.32s WALL ( 3654301 calls)
 
     incdrhoscf   :    270.28s CPU    285.35s WALL (  234232 calls)
     addusdbec    :     22.94s CPU     24.25s WALL (  254938 calls)
 
     drhodvus     :      0.06s CPU      0.08s WALL (     160 calls)
 
      General routines
     calbec       :    460.97s CPU    479.40s WALL ( 7843525 calls)
     fft          :      2.17s CPU      2.26s WALL (   29992 calls)
     ffts         :      1.27s CPU      1.28s WALL (   21936 calls)
     fftw         :   2608.43s CPU   2719.63s WALL (78643456 calls)
     davcio       :     13.83s CPU     20.87s WALL ( 1209916 calls)
     write_rec    :      1.45s CPU     13.56s WALL (    1900 calls)
 
 
     PHONON       :     1h12m CPU       12h 1m WALL

      15h
 
   This run was terminated on:  14:13:58  11May2022            

=------------------------------------------------------------------------------=
   JOB DONE.
=------------------------------------------------------------------------------=
