
     Program Q2R v.6.3MaX starts on 12May2022 at 17: 2:42 

     This program is part of the open-source Quantum ESPRESSO suite
     for quantum simulation of materials; please cite
         "P. Giannozzi et al., J. Phys.:Condens. Matter 21 395502 (2009);
         "P. Giannozzi et al., J. Phys.:Condens. Matter 29 465901 (2017);
          URL http://www.quantum-espresso.org", 
     in publications or presentations arising from this work. More details at
     http://www.quantum-espresso.org/quote

     Parallel version (MPI), running on     1 processors

     MPI processes distributed on     1 nodes

     reading grid info from file ge.dyn.0    
  reading force constants from file ge.dyn.1
 macroscopic fields = T
**********   0.00000   0.00000
  -0.00000**********  -0.00000
   0.00000   0.00000**********
  na=            1
  20.76485  -0.00000   0.00000
   0.00000  20.76485   0.00000
  -0.00000  -0.00000  20.76485
  na=            2
 -21.66847   0.00000  -0.00000
   0.00000 -21.66847  -0.00000
  -0.00000  -0.00000 -21.66847
  nqs=            1
 q=   0.00000000  0.00000000  0.00000000
  reading force constants from file ge.dyn.2
  nqs=            8
 q=  -0.12500000  0.12500000 -0.12500000
 q=   0.12500000 -0.12500000  0.12500000
 q=   0.12500000 -0.12500000 -0.12500000
 q=  -0.12500000  0.12500000  0.12500000
 q=  -0.12500000 -0.12500000  0.12500000
 q=   0.12500000  0.12500000 -0.12500000
 q=   0.12500000  0.12500000  0.12500000
 q=  -0.12500000 -0.12500000 -0.12500000
  reading force constants from file ge.dyn.3
  nqs=            8
 q=  -0.25000000  0.25000000 -0.25000000
 q=   0.25000000 -0.25000000  0.25000000
 q=   0.25000000 -0.25000000 -0.25000000
 q=  -0.25000000  0.25000000  0.25000000
 q=  -0.25000000 -0.25000000  0.25000000
 q=   0.25000000  0.25000000 -0.25000000
 q=   0.25000000  0.25000000  0.25000000
 q=  -0.25000000 -0.25000000 -0.25000000
  reading force constants from file ge.dyn.4
  nqs=            8
 q=  -0.37500000  0.37500000 -0.37500000
 q=   0.37500000 -0.37500000  0.37500000
 q=   0.37500000 -0.37500000 -0.37500000
 q=  -0.37500000  0.37500000  0.37500000
 q=  -0.37500000 -0.37500000  0.37500000
 q=   0.37500000  0.37500000 -0.37500000
 q=   0.37500000  0.37500000  0.37500000
 q=  -0.37500000 -0.37500000 -0.37500000
  reading force constants from file ge.dyn.5
  nqs=            4
 q=   0.50000000 -0.50000000  0.50000000
 q=  -0.50000000  0.50000000  0.50000000
 q=   0.50000000  0.50000000 -0.50000000
 q=  -0.50000000 -0.50000000 -0.50000000
  reading force constants from file ge.dyn.6
  nqs=            6
 q=   0.00000000  0.25000000  0.00000000
 q=  -0.25000000  0.00000000  0.00000000
 q=   0.00000000 -0.25000000  0.00000000
 q=   0.00000000  0.00000000  0.25000000
 q=   0.00000000  0.00000000 -0.25000000
 q=   0.25000000  0.00000000  0.00000000
  reading force constants from file ge.dyn.7
  nqs=           24
 q=  -0.12500000  0.37500000 -0.12500000
 q=   0.12500000 -0.37500000  0.12500000
 q=   0.12500000  0.37500000  0.12500000
 q=  -0.12500000 -0.37500000 -0.12500000
 q=  -0.37500000  0.12500000 -0.12500000
 q=   0.37500000 -0.12500000  0.12500000
 q=   0.12500000 -0.37500000 -0.12500000
 q=  -0.12500000  0.37500000  0.12500000
 q=  -0.12500000 -0.37500000  0.12500000
 q=   0.12500000  0.37500000 -0.12500000
 q=  -0.12500000 -0.12500000  0.37500000
 q=   0.12500000  0.12500000 -0.37500000
 q=   0.12500000  0.12500000  0.37500000
 q=  -0.12500000 -0.12500000 -0.37500000
 q=   0.12500000 -0.12500000 -0.37500000
 q=  -0.12500000  0.12500000  0.37500000
 q=   0.37500000 -0.12500000 -0.12500000
 q=  -0.37500000  0.12500000  0.12500000
 q=  -0.37500000 -0.12500000  0.12500000
 q=   0.37500000  0.12500000 -0.12500000
 q=   0.37500000  0.12500000  0.12500000
 q=  -0.37500000 -0.12500000 -0.12500000
 q=  -0.12500000  0.12500000 -0.37500000
 q=   0.12500000 -0.12500000  0.37500000
  reading force constants from file ge.dyn.8
  nqs=           24
 q=  -0.25000000  0.50000000 -0.25000000
 q=   0.25000000 -0.50000000  0.25000000
 q=   0.25000000  0.50000000  0.25000000
 q=  -0.25000000 -0.50000000 -0.25000000
 q=  -0.50000000  0.25000000 -0.25000000
 q=   0.50000000 -0.25000000  0.25000000
 q=   0.25000000 -0.50000000 -0.25000000
 q=  -0.25000000  0.50000000  0.25000000
 q=  -0.25000000 -0.50000000  0.25000000
 q=   0.25000000  0.50000000 -0.25000000
 q=  -0.25000000 -0.25000000  0.50000000
 q=   0.25000000  0.25000000 -0.50000000
 q=   0.25000000  0.25000000  0.50000000
 q=  -0.25000000 -0.25000000 -0.50000000
 q=   0.25000000 -0.25000000 -0.50000000
 q=  -0.25000000  0.25000000  0.50000000
 q=   0.50000000 -0.25000000 -0.25000000
 q=  -0.50000000  0.25000000  0.25000000
 q=  -0.50000000 -0.25000000  0.25000000
 q=   0.50000000  0.25000000 -0.25000000
 q=   0.50000000  0.25000000  0.25000000
 q=  -0.50000000 -0.25000000 -0.25000000
 q=  -0.25000000  0.25000000 -0.50000000
 q=   0.25000000 -0.25000000  0.50000000
  reading force constants from file ge.dyn.9
  nqs=           24
 q=   0.62500000 -0.37500000  0.62500000
 q=  -0.62500000  0.37500000 -0.62500000
 q=  -0.62500000 -0.37500000 -0.62500000
 q=   0.62500000  0.37500000  0.62500000
 q=   0.37500000 -0.62500000  0.62500000
 q=  -0.37500000  0.62500000 -0.62500000
 q=  -0.62500000  0.37500000  0.62500000
 q=   0.62500000 -0.37500000 -0.62500000
 q=   0.62500000  0.37500000 -0.62500000
 q=  -0.62500000 -0.37500000  0.62500000
 q=   0.62500000  0.62500000 -0.37500000
 q=  -0.62500000 -0.62500000  0.37500000
 q=  -0.62500000 -0.62500000 -0.37500000
 q=   0.62500000  0.62500000  0.37500000
 q=  -0.62500000  0.62500000  0.37500000
 q=   0.62500000 -0.62500000 -0.37500000
 q=  -0.37500000  0.62500000  0.62500000
 q=   0.37500000 -0.62500000 -0.62500000
 q=   0.37500000  0.62500000 -0.62500000
 q=  -0.37500000 -0.62500000  0.62500000
 q=  -0.37500000 -0.62500000 -0.62500000
 q=   0.37500000  0.62500000  0.62500000
 q=   0.62500000 -0.62500000  0.37500000
 q=  -0.62500000  0.62500000 -0.37500000
  reading force constants from file ge.dyn.10
  nqs=           24
 q=   0.50000000 -0.25000000  0.50000000
 q=  -0.50000000  0.25000000 -0.50000000
 q=  -0.50000000 -0.25000000 -0.50000000
 q=   0.50000000  0.25000000  0.50000000
 q=   0.25000000 -0.50000000  0.50000000
 q=  -0.25000000  0.50000000 -0.50000000
 q=  -0.50000000  0.25000000  0.50000000
 q=   0.50000000 -0.25000000 -0.50000000
 q=   0.50000000  0.25000000 -0.50000000
 q=  -0.50000000 -0.25000000  0.50000000
 q=   0.50000000  0.50000000 -0.25000000
 q=  -0.50000000 -0.50000000  0.25000000
 q=  -0.50000000 -0.50000000 -0.25000000
 q=   0.50000000  0.50000000  0.25000000
 q=  -0.50000000  0.50000000  0.25000000
 q=   0.50000000 -0.50000000 -0.25000000
 q=  -0.25000000  0.50000000  0.50000000
 q=   0.25000000 -0.50000000 -0.50000000
 q=   0.25000000  0.50000000 -0.50000000
 q=  -0.25000000 -0.50000000  0.50000000
 q=  -0.25000000 -0.50000000 -0.50000000
 q=   0.25000000  0.50000000  0.50000000
 q=   0.50000000 -0.50000000  0.25000000
 q=  -0.50000000  0.50000000 -0.25000000
  reading force constants from file ge.dyn.11
  nqs=           24
 q=   0.37500000 -0.12500000  0.37500000
 q=  -0.37500000  0.12500000 -0.37500000
 q=  -0.37500000 -0.12500000 -0.37500000
 q=   0.37500000  0.12500000  0.37500000
 q=   0.12500000 -0.37500000  0.37500000
 q=  -0.12500000  0.37500000 -0.37500000
 q=  -0.37500000  0.12500000  0.37500000
 q=   0.37500000 -0.12500000 -0.37500000
 q=   0.37500000  0.12500000 -0.37500000
 q=  -0.37500000 -0.12500000  0.37500000
 q=   0.37500000  0.37500000 -0.12500000
 q=  -0.37500000 -0.37500000  0.12500000
 q=  -0.37500000 -0.37500000 -0.12500000
 q=   0.37500000  0.37500000  0.12500000
 q=  -0.37500000  0.37500000  0.12500000
 q=   0.37500000 -0.37500000 -0.12500000
 q=  -0.12500000  0.37500000  0.37500000
 q=   0.12500000 -0.37500000 -0.37500000
 q=   0.12500000  0.37500000 -0.37500000
 q=  -0.12500000 -0.37500000  0.37500000
 q=  -0.12500000 -0.37500000 -0.37500000
 q=   0.12500000  0.37500000  0.37500000
 q=   0.37500000 -0.37500000  0.12500000
 q=  -0.37500000  0.37500000 -0.12500000
  reading force constants from file ge.dyn.12
  nqs=           12
 q=   0.25000000  0.00000000  0.25000000
 q=  -0.25000000  0.00000000 -0.25000000
 q=   0.00000000 -0.25000000  0.25000000
 q=  -0.25000000  0.00000000  0.25000000
 q=   0.25000000  0.00000000 -0.25000000
 q=   0.25000000  0.25000000  0.00000000
 q=  -0.25000000 -0.25000000  0.00000000
 q=  -0.25000000  0.25000000  0.00000000
 q=   0.00000000  0.25000000  0.25000000
 q=   0.00000000  0.25000000 -0.25000000
 q=   0.00000000 -0.25000000 -0.25000000
 q=   0.25000000 -0.25000000  0.00000000
  reading force constants from file ge.dyn.13
  nqs=            6
 q=   0.00000000  0.50000000  0.00000000
 q=  -0.50000000  0.00000000  0.00000000
 q=   0.00000000 -0.50000000  0.00000000
 q=   0.00000000  0.00000000  0.50000000
 q=   0.00000000  0.00000000 -0.50000000
 q=   0.50000000  0.00000000  0.00000000
  reading force constants from file ge.dyn.14
  nqs=           24
 q=  -0.12500000  0.62500000 -0.12500000
 q=   0.12500000 -0.62500000  0.12500000
 q=   0.12500000  0.62500000  0.12500000
 q=  -0.12500000 -0.62500000 -0.12500000
 q=  -0.62500000  0.12500000 -0.12500000
 q=   0.62500000 -0.12500000  0.12500000
 q=   0.12500000 -0.62500000 -0.12500000
 q=  -0.12500000  0.62500000  0.12500000
 q=  -0.12500000 -0.62500000  0.12500000
 q=   0.12500000  0.62500000 -0.12500000
 q=  -0.12500000 -0.12500000  0.62500000
 q=   0.12500000  0.12500000 -0.62500000
 q=   0.12500000  0.12500000  0.62500000
 q=  -0.12500000 -0.12500000 -0.62500000
 q=   0.12500000 -0.12500000 -0.62500000
 q=  -0.12500000  0.12500000  0.62500000
 q=   0.62500000 -0.12500000 -0.12500000
 q=  -0.62500000  0.12500000  0.12500000
 q=  -0.62500000 -0.12500000  0.12500000
 q=   0.62500000  0.12500000 -0.12500000
 q=   0.62500000  0.12500000  0.12500000
 q=  -0.62500000 -0.12500000 -0.12500000
 q=  -0.12500000  0.12500000 -0.62500000
 q=   0.12500000 -0.12500000  0.62500000
  reading force constants from file ge.dyn.15
  nqs=           24
 q=   0.75000000 -0.25000000  0.75000000
 q=  -0.75000000  0.25000000 -0.75000000
 q=  -0.75000000 -0.25000000 -0.75000000
 q=   0.75000000  0.25000000  0.75000000
 q=   0.25000000 -0.75000000  0.75000000
 q=  -0.25000000  0.75000000 -0.75000000
 q=  -0.75000000  0.25000000  0.75000000
 q=   0.75000000 -0.25000000 -0.75000000
 q=   0.75000000  0.25000000 -0.75000000
 q=  -0.75000000 -0.25000000  0.75000000
 q=   0.75000000  0.75000000 -0.25000000
 q=  -0.75000000 -0.75000000  0.25000000
 q=  -0.75000000 -0.75000000 -0.25000000
 q=   0.75000000  0.75000000  0.25000000
 q=  -0.75000000  0.75000000  0.25000000
 q=   0.75000000 -0.75000000 -0.25000000
 q=  -0.25000000  0.75000000  0.75000000
 q=   0.25000000 -0.75000000 -0.75000000
 q=   0.25000000  0.75000000 -0.75000000
 q=  -0.25000000 -0.75000000  0.75000000
 q=  -0.25000000 -0.75000000 -0.75000000
 q=   0.25000000  0.75000000  0.75000000
 q=   0.75000000 -0.75000000  0.25000000
 q=  -0.75000000  0.75000000 -0.25000000
  reading force constants from file ge.dyn.16
  nqs=           24
 q=   0.62500000 -0.12500000  0.62500000
 q=  -0.62500000  0.12500000 -0.62500000
 q=  -0.62500000 -0.12500000 -0.62500000
 q=   0.62500000  0.12500000  0.62500000
 q=   0.12500000 -0.62500000  0.62500000
 q=  -0.12500000  0.62500000 -0.62500000
 q=  -0.62500000  0.12500000  0.62500000
 q=   0.62500000 -0.12500000 -0.62500000
 q=   0.62500000  0.12500000 -0.62500000
 q=  -0.62500000 -0.12500000  0.62500000
 q=   0.62500000  0.62500000 -0.12500000
 q=  -0.62500000 -0.62500000  0.12500000
 q=  -0.62500000 -0.62500000 -0.12500000
 q=   0.62500000  0.62500000  0.12500000
 q=  -0.62500000  0.62500000  0.12500000
 q=   0.62500000 -0.62500000 -0.12500000
 q=  -0.12500000  0.62500000  0.62500000
 q=   0.12500000 -0.62500000 -0.62500000
 q=   0.12500000  0.62500000 -0.62500000
 q=  -0.12500000 -0.62500000  0.62500000
 q=  -0.12500000 -0.62500000 -0.62500000
 q=   0.12500000  0.62500000  0.62500000
 q=   0.62500000 -0.62500000  0.12500000
 q=  -0.62500000  0.62500000 -0.12500000
  reading force constants from file ge.dyn.17
  nqs=           12
 q=   0.50000000  0.00000000  0.50000000
 q=  -0.50000000  0.00000000 -0.50000000
 q=   0.00000000 -0.50000000  0.50000000
 q=  -0.50000000  0.00000000  0.50000000
 q=   0.50000000  0.00000000 -0.50000000
 q=   0.50000000  0.50000000  0.00000000
 q=  -0.50000000 -0.50000000  0.00000000
 q=  -0.50000000  0.50000000  0.00000000
 q=   0.00000000  0.50000000  0.50000000
 q=   0.00000000  0.50000000 -0.50000000
 q=   0.00000000 -0.50000000 -0.50000000
 q=   0.50000000 -0.50000000  0.00000000
  reading force constants from file ge.dyn.18
  nqs=            6
 q=   0.00000000  0.75000000  0.00000000
 q=  -0.75000000  0.00000000  0.00000000
 q=   0.00000000 -0.75000000  0.00000000
 q=   0.00000000  0.00000000  0.75000000
 q=   0.00000000  0.00000000 -0.75000000
 q=   0.75000000  0.00000000  0.00000000
  reading force constants from file ge.dyn.19
  nqs=           24
 q=   0.87500000 -0.12500000  0.87500000
 q=  -0.87500000  0.12500000 -0.87500000
 q=  -0.87500000 -0.12500000 -0.87500000
 q=   0.87500000  0.12500000  0.87500000
 q=   0.12500000 -0.87500000  0.87500000
 q=  -0.12500000  0.87500000 -0.87500000
 q=  -0.87500000  0.12500000  0.87500000
 q=   0.87500000 -0.12500000 -0.87500000
 q=   0.87500000  0.12500000 -0.87500000
 q=  -0.87500000 -0.12500000  0.87500000
 q=   0.87500000  0.87500000 -0.12500000
 q=  -0.87500000 -0.87500000  0.12500000
 q=  -0.87500000 -0.87500000 -0.12500000
 q=   0.87500000  0.87500000  0.12500000
 q=  -0.87500000  0.87500000  0.12500000
 q=   0.87500000 -0.87500000 -0.12500000
 q=  -0.12500000  0.87500000  0.87500000
 q=   0.12500000 -0.87500000 -0.87500000
 q=   0.12500000  0.87500000 -0.87500000
 q=  -0.12500000 -0.87500000  0.87500000
 q=  -0.12500000 -0.87500000 -0.87500000
 q=   0.12500000  0.87500000  0.87500000
 q=   0.87500000 -0.87500000  0.12500000
 q=  -0.87500000  0.87500000 -0.12500000
  reading force constants from file ge.dyn.20
  nqs=           12
 q=   0.75000000  0.00000000  0.75000000
 q=  -0.75000000  0.00000000 -0.75000000
 q=   0.00000000 -0.75000000  0.75000000
 q=  -0.75000000  0.00000000  0.75000000
 q=   0.75000000  0.00000000 -0.75000000
 q=   0.75000000  0.75000000  0.00000000
 q=  -0.75000000 -0.75000000  0.00000000
 q=  -0.75000000  0.75000000  0.00000000
 q=   0.00000000  0.75000000  0.75000000
 q=   0.00000000  0.75000000 -0.75000000
 q=   0.00000000 -0.75000000 -0.75000000
 q=   0.75000000 -0.75000000  0.00000000
  reading force constants from file ge.dyn.21
  nqs=            3
 q=   0.00000000 -1.00000000  0.00000000
 q=   0.00000000  0.00000000 -1.00000000
 q=  -1.00000000  0.00000000  0.00000000
  reading force constants from file ge.dyn.22
  nqs=           24
 q=  -0.25000000  0.50000000  0.00000000
 q=   0.00000000  0.50000000 -0.25000000
 q=   0.25000000  0.50000000  0.00000000
 q=   0.00000000  0.50000000  0.25000000
 q=   0.00000000 -0.50000000 -0.25000000
 q=   0.00000000 -0.50000000  0.25000000
 q=   0.25000000 -0.50000000  0.00000000
 q=  -0.25000000 -0.50000000  0.00000000
 q=   0.00000000 -0.25000000  0.50000000
 q=   0.25000000  0.00000000  0.50000000
 q=   0.00000000  0.25000000  0.50000000
 q=   0.00000000 -0.25000000 -0.50000000
 q=   0.25000000  0.00000000 -0.50000000
 q=   0.50000000 -0.25000000  0.00000000
 q=  -0.50000000 -0.25000000  0.00000000
 q=   0.50000000  0.25000000  0.00000000
 q=  -0.50000000  0.25000000  0.00000000
 q=   0.50000000  0.00000000 -0.25000000
 q=   0.50000000  0.00000000  0.25000000
 q=  -0.50000000  0.00000000 -0.25000000
 q=  -0.50000000  0.00000000  0.25000000
 q=  -0.25000000  0.00000000  0.50000000
 q=   0.00000000  0.25000000 -0.50000000
 q=  -0.25000000  0.00000000 -0.50000000
  reading force constants from file ge.dyn.23
  nqs=           48
 q=   0.62500000 -0.37500000  0.87500000
 q=  -0.62500000  0.37500000 -0.87500000
 q=   0.87500000 -0.37500000  0.62500000
 q=  -0.87500000  0.37500000 -0.62500000
 q=  -0.62500000 -0.37500000 -0.87500000
 q=   0.62500000  0.37500000  0.87500000
 q=  -0.87500000 -0.37500000 -0.62500000
 q=   0.87500000  0.37500000  0.62500000
 q=  -0.87500000  0.37500000  0.62500000
 q=   0.87500000 -0.37500000 -0.62500000
 q=   0.87500000  0.37500000 -0.62500000
 q=  -0.87500000 -0.37500000  0.62500000
 q=  -0.62500000  0.37500000  0.87500000
 q=   0.62500000 -0.37500000 -0.87500000
 q=   0.62500000  0.37500000 -0.87500000
 q=  -0.62500000 -0.37500000  0.87500000
 q=   0.87500000  0.62500000 -0.37500000
 q=  -0.87500000 -0.62500000  0.37500000
 q=  -0.62500000 -0.87500000 -0.37500000
 q=   0.62500000  0.87500000  0.37500000
 q=  -0.87500000 -0.62500000 -0.37500000
 q=   0.87500000  0.62500000  0.37500000
 q=  -0.87500000  0.62500000  0.37500000
 q=   0.87500000 -0.62500000 -0.37500000
 q=  -0.62500000  0.87500000  0.37500000
 q=   0.62500000 -0.87500000 -0.37500000
 q=  -0.37500000  0.62500000  0.87500000
 q=   0.37500000 -0.62500000 -0.87500000
 q=   0.37500000  0.62500000 -0.87500000
 q=  -0.37500000 -0.62500000  0.87500000
 q=  -0.37500000 -0.62500000 -0.87500000
 q=   0.37500000  0.62500000  0.87500000
 q=   0.37500000 -0.62500000  0.87500000
 q=  -0.37500000  0.62500000 -0.87500000
 q=  -0.37500000  0.87500000  0.62500000
 q=   0.37500000 -0.87500000 -0.62500000
 q=  -0.37500000 -0.87500000 -0.62500000
 q=   0.37500000  0.87500000  0.62500000
 q=   0.37500000 -0.87500000  0.62500000
 q=  -0.37500000  0.87500000 -0.62500000
 q=   0.37500000  0.87500000 -0.62500000
 q=  -0.37500000 -0.87500000  0.62500000
 q=   0.62500000  0.87500000 -0.37500000
 q=  -0.62500000 -0.87500000  0.37500000
 q=   0.87500000 -0.62500000  0.37500000
 q=  -0.87500000  0.62500000 -0.37500000
 q=   0.62500000 -0.87500000  0.37500000
 q=  -0.62500000  0.87500000 -0.37500000
  reading force constants from file ge.dyn.24
  nqs=           24
 q=   0.50000000 -0.25000000  0.75000000
 q=   0.75000000 -0.25000000  0.50000000
 q=  -0.50000000 -0.25000000 -0.75000000
 q=  -0.75000000 -0.25000000 -0.50000000
 q=  -0.75000000  0.25000000  0.50000000
 q=   0.75000000  0.25000000 -0.50000000
 q=  -0.50000000  0.25000000  0.75000000
 q=   0.50000000  0.25000000 -0.75000000
 q=   0.75000000  0.50000000 -0.25000000
 q=  -0.50000000 -0.75000000 -0.25000000
 q=  -0.75000000 -0.50000000 -0.25000000
 q=  -0.75000000  0.50000000  0.25000000
 q=  -0.50000000  0.75000000  0.25000000
 q=  -0.25000000  0.50000000  0.75000000
 q=   0.25000000  0.50000000 -0.75000000
 q=  -0.25000000 -0.50000000 -0.75000000
 q=   0.25000000 -0.50000000  0.75000000
 q=  -0.25000000  0.75000000  0.50000000
 q=  -0.25000000 -0.75000000 -0.50000000
 q=   0.25000000 -0.75000000  0.50000000
 q=   0.25000000  0.75000000 -0.50000000
 q=   0.50000000  0.75000000 -0.25000000
 q=   0.75000000 -0.50000000  0.25000000
 q=   0.50000000 -0.75000000  0.25000000
  reading force constants from file ge.dyn.25
  nqs=           24
 q=   0.75000000 -0.25000000  1.00000000
 q=   1.00000000 -0.25000000  0.75000000
 q=  -0.75000000 -0.25000000 -1.00000000
 q=  -1.00000000 -0.25000000 -0.75000000
 q=  -1.00000000  0.25000000  0.75000000
 q=   1.00000000  0.25000000 -0.75000000
 q=  -0.75000000  0.25000000  1.00000000
 q=   0.75000000  0.25000000 -1.00000000
 q=   1.00000000  0.75000000 -0.25000000
 q=  -0.75000000 -1.00000000 -0.25000000
 q=  -1.00000000 -0.75000000 -0.25000000
 q=  -1.00000000  0.75000000  0.25000000
 q=  -0.75000000  1.00000000  0.25000000
 q=  -0.25000000  0.75000000  1.00000000
 q=   0.25000000  0.75000000 -1.00000000
 q=  -0.25000000 -0.75000000 -1.00000000
 q=   0.25000000 -0.75000000  1.00000000
 q=  -0.25000000  1.00000000  0.75000000
 q=  -0.25000000 -1.00000000 -0.75000000
 q=   0.25000000 -1.00000000  0.75000000
 q=   0.25000000  1.00000000 -0.75000000
 q=   0.75000000  1.00000000 -0.25000000
 q=   1.00000000 -0.75000000  0.25000000
 q=   0.75000000 -1.00000000  0.25000000
  reading force constants from file ge.dyn.26
  nqs=           48
 q=   0.62500000 -0.12500000  0.87500000
 q=  -0.62500000  0.12500000 -0.87500000
 q=   0.87500000 -0.12500000  0.62500000
 q=  -0.87500000  0.12500000 -0.62500000
 q=  -0.62500000 -0.12500000 -0.87500000
 q=   0.62500000  0.12500000  0.87500000
 q=  -0.87500000 -0.12500000 -0.62500000
 q=   0.87500000  0.12500000  0.62500000
 q=  -0.87500000  0.12500000  0.62500000
 q=   0.87500000 -0.12500000 -0.62500000
 q=   0.87500000  0.12500000 -0.62500000
 q=  -0.87500000 -0.12500000  0.62500000
 q=  -0.62500000  0.12500000  0.87500000
 q=   0.62500000 -0.12500000 -0.87500000
 q=   0.62500000  0.12500000 -0.87500000
 q=  -0.62500000 -0.12500000  0.87500000
 q=   0.87500000  0.62500000 -0.12500000
 q=  -0.87500000 -0.62500000  0.12500000
 q=  -0.62500000 -0.87500000 -0.12500000
 q=   0.62500000  0.87500000  0.12500000
 q=  -0.87500000 -0.62500000 -0.12500000
 q=   0.87500000  0.62500000  0.12500000
 q=  -0.87500000  0.62500000  0.12500000
 q=   0.87500000 -0.62500000 -0.12500000
 q=  -0.62500000  0.87500000  0.12500000
 q=   0.62500000 -0.87500000 -0.12500000
 q=  -0.12500000  0.62500000  0.87500000
 q=   0.12500000 -0.62500000 -0.87500000
 q=   0.12500000  0.62500000 -0.87500000
 q=  -0.12500000 -0.62500000  0.87500000
 q=  -0.12500000 -0.62500000 -0.87500000
 q=   0.12500000  0.62500000  0.87500000
 q=   0.12500000 -0.62500000  0.87500000
 q=  -0.12500000  0.62500000 -0.87500000
 q=  -0.12500000  0.87500000  0.62500000
 q=   0.12500000 -0.87500000 -0.62500000
 q=  -0.12500000 -0.87500000 -0.62500000
 q=   0.12500000  0.87500000  0.62500000
 q=   0.12500000 -0.87500000  0.62500000
 q=  -0.12500000  0.87500000 -0.62500000
 q=   0.12500000  0.87500000 -0.62500000
 q=  -0.12500000 -0.87500000  0.62500000
 q=   0.62500000  0.87500000 -0.12500000
 q=  -0.62500000 -0.87500000  0.12500000
 q=   0.87500000 -0.62500000  0.12500000
 q=  -0.87500000  0.62500000 -0.12500000
 q=   0.62500000 -0.87500000  0.12500000
 q=  -0.62500000  0.87500000 -0.12500000
  reading force constants from file ge.dyn.27
  nqs=           24
 q=   0.50000000  0.00000000  0.75000000
 q=   0.75000000  0.00000000  0.50000000
 q=  -0.50000000  0.00000000 -0.75000000
 q=  -0.75000000  0.00000000 -0.50000000
 q=  -0.75000000  0.00000000  0.50000000
 q=   0.75000000  0.00000000 -0.50000000
 q=  -0.50000000  0.00000000  0.75000000
 q=   0.50000000  0.00000000 -0.75000000
 q=   0.75000000  0.50000000  0.00000000
 q=  -0.50000000 -0.75000000  0.00000000
 q=  -0.75000000 -0.50000000  0.00000000
 q=  -0.75000000  0.50000000  0.00000000
 q=  -0.50000000  0.75000000  0.00000000
 q=   0.00000000  0.50000000  0.75000000
 q=   0.00000000  0.50000000 -0.75000000
 q=   0.00000000 -0.50000000 -0.75000000
 q=   0.00000000 -0.50000000  0.75000000
 q=   0.00000000  0.75000000  0.50000000
 q=   0.00000000 -0.75000000 -0.50000000
 q=   0.00000000 -0.75000000  0.50000000
 q=   0.00000000  0.75000000 -0.50000000
 q=   0.50000000  0.75000000  0.00000000
 q=   0.75000000 -0.50000000  0.00000000
 q=   0.50000000 -0.75000000  0.00000000
  reading force constants from file ge.dyn.28
  nqs=           12
 q=  -0.25000000 -1.00000000  0.00000000
 q=   0.25000000 -1.00000000  0.00000000
 q=   0.00000000 -1.00000000  0.25000000
 q=   0.00000000  1.00000000 -0.25000000
 q=   0.00000000 -0.25000000 -1.00000000
 q=   0.25000000  0.00000000 -1.00000000
 q=   0.00000000  0.25000000 -1.00000000
 q=  -1.00000000 -0.25000000  0.00000000
 q=  -1.00000000  0.25000000  0.00000000
 q=  -1.00000000  0.00000000 -0.25000000
 q=  -1.00000000  0.00000000  0.25000000
 q=  -0.25000000  0.00000000 -1.00000000
  reading force constants from file ge.dyn.29
  nqs=            6
 q=  -0.50000000 -1.00000000  0.00000000
 q=   0.00000000  1.00000000 -0.50000000
 q=   0.00000000  1.00000000  0.50000000
 q=   0.50000000  1.00000000  0.00000000
 q=   0.00000000 -0.50000000 -1.00000000
 q=   0.00000000  0.50000000 -1.00000000

      q-space grid ok, #points =  512

      fft-check success (sum of imaginary terms < 10^-12)
 
     Q2R          :     0.04s CPU         0.06s WALL

 
   This run was terminated on:  17: 2:42  12May2022            

=------------------------------------------------------------------------------=
   JOB DONE.
=------------------------------------------------------------------------------=
