
     Program PWSCF v.6.3MaX starts on 10May2022 at 15:55:17 

     This program is part of the open-source Quantum ESPRESSO suite
     for quantum simulation of materials; please cite
         "P. Giannozzi et al., J. Phys.:Condens. Matter 21 395502 (2009);
         "P. Giannozzi et al., J. Phys.:Condens. Matter 29 465901 (2017);
          URL http://www.quantum-espresso.org", 
     in publications or presentations arising from this work. More details at
     http://www.quantum-espresso.org/quote

     Parallel version (MPI), running on     1 processors

     MPI processes distributed on     1 nodes
     Waiting for input...
     Reading input from standard input

     Current dimensions of program PWSCF are:
     Max number of different atomic species (ntypx) = 10
     Max number of k-points (npk) =  40000
     Max angular momentum in pseudopotentials (lmaxx) =  3
               file Ge.pbe-dn-kjpaw_psl.0.2.2.UPF: wavefunction(s)  4P 3D renormalized

     Subspace diagonalization in iterative solution of the eigenvalue problem:
     a serial algorithm will be used

 
     G-vector sticks info
     --------------------
     sticks:   dense  smooth     PW     G-vecs:    dense   smooth      PW
     Sum         463     463    151                 6615     6615    1243
 


     bravais-lattice index     =            2
     lattice parameter (alat)  =      10.2000  a.u.
     unit-cell volume          =     265.3020 (a.u.)^3
     number of atoms/cell      =            2
     number of atomic types    =            1
     number of electrons       =        28.00
     number of Kohn-Sham states=           14
     kinetic-energy cutoff     =      32.3680  Ry
     charge density cutoff     =     129.4720  Ry
     convergence threshold     =      1.0E-08
     mixing beta               =       0.7000
     number of iterations used =            8  plain     mixing
     Exchange-correlation      = SLA PW PBX PBC ( 1  4  3  4 0 0)

     celldm(1)=  10.200000  celldm(2)=   0.000000  celldm(3)=   0.000000
     celldm(4)=   0.000000  celldm(5)=   0.000000  celldm(6)=   0.000000

     crystal axes: (cart. coord. in units of alat)
               a(1) = (  -0.500000   0.000000   0.500000 )  
               a(2) = (   0.000000   0.500000   0.500000 )  
               a(3) = (  -0.500000   0.500000   0.000000 )  

     reciprocal axes: (cart. coord. in units 2 pi/alat)
               b(1) = ( -1.000000 -1.000000  1.000000 )  
               b(2) = (  1.000000  1.000000  1.000000 )  
               b(3) = ( -1.000000  1.000000 -1.000000 )  


     PseudoPot. # 1 for Ge read from file:
     ../../PP/Ge.pbe-dn-kjpaw_psl.0.2.2.UPF
     MD5 check sum: acf6dd3aa1b4e03129ff8bf786ac0282
     Pseudo is Projector augmented-wave + core cor, Zval = 14.0
     Generated using "atomic" code by A. Dal Corso v.5.0.2 svn rev. 9415
     Shape of augmentation charge: PSQ
     Using radial grid of 1207 points,  6 beta functions with: 
                l(1) =   0
                l(2) =   0
                l(3) =   1
                l(4) =   1
                l(5) =   2
                l(6) =   2
     Q(r) pseudized with 0 coefficients 


     atomic species   valence    mass     pseudopotential
        Ge            14.00    28.08600     Ge( 1.00)

     24 Sym. Ops. (no inversion) found
          (note: 24 additional sym.ops. were found but ignored
           their fractional translations are incommensurate with FFT grid)


   Cartesian axes

     site n.     atom                  positions (alat units)
         1           Ge  tau(   1) = (   0.0000000   0.0000000   0.0000000  )
         2           Ge  tau(   2) = (  -0.2500000   0.2500000   0.2500000  )

     number of k points=    16
                       cart. coord. in units 2pi/alat
        k(    1) = (   0.0000000   0.0000000   0.0000000), wk =   0.0092593
        k(    2) = (  -0.1666667   0.1666667  -0.1666667), wk =   0.0740741
        k(    3) = (  -0.3333333   0.3333333  -0.3333333), wk =   0.0740741
        k(    4) = (   0.5000000  -0.5000000   0.5000000), wk =   0.0370370
        k(    5) = (   0.0000000   0.3333333   0.0000000), wk =   0.0555556
        k(    6) = (  -0.1666667   0.5000000  -0.1666667), wk =   0.2222222
        k(    7) = (   0.6666667  -0.3333333   0.6666667), wk =   0.2222222
        k(    8) = (   0.5000000  -0.1666667   0.5000000), wk =   0.2222222
        k(    9) = (   0.3333333   0.0000000   0.3333333), wk =   0.1111111
        k(   10) = (   0.0000000   0.6666667   0.0000000), wk =   0.0555556
        k(   11) = (   0.8333333  -0.1666667   0.8333333), wk =   0.2222222
        k(   12) = (   0.6666667  -0.0000000   0.6666667), wk =   0.1111111
        k(   13) = (   0.0000000  -1.0000000   0.0000000), wk =   0.0277778
        k(   14) = (   0.6666667  -0.3333333   1.0000000), wk =   0.2222222
        k(   15) = (   0.5000000  -0.1666667   0.8333333), wk =   0.2222222
        k(   16) = (  -0.3333333  -1.0000000   0.0000000), wk =   0.1111111

     Dense  grid:     6615 G-vectors     FFT dimensions: (  27,  27,  27)

     Estimated max dynamical RAM per process >      29.32 MB

     Check: negative/imaginary core charge=   -0.000232    0.000000

     Initial potential from superposition of free atoms

     starting charge   27.99847, renormalised to   28.00000
     Starting wfcs are   18 randomized atomic wfcs
     Checking if some PAW data can be deallocated... 

     total cpu time spent up to now is        1.2 secs

     Self-consistent Calculation

     iteration #  1     ecut=    32.37 Ry     beta= 0.70
     Davidson diagonalization with overlap
     ethr =  1.00E-02,  avg # of iterations =  1.9

     Threshold (ethr) on eigenvalues was too large:
     Diagonalizing with lowered threshold

     Davidson diagonalization with overlap
     ethr =  1.56E-04,  avg # of iterations =  1.9

     total cpu time spent up to now is        2.1 secs

     total energy              =    -631.04794230 Ry
     Harris-Foulkes estimate   =    -631.05796141 Ry
     estimated scf accuracy    <       0.04422767 Ry

     iteration #  2     ecut=    32.37 Ry     beta= 0.70
     Davidson diagonalization with overlap
     ethr =  1.58E-04,  avg # of iterations =  1.1

     total cpu time spent up to now is        2.6 secs

     total energy              =    -631.04928120 Ry
     Harris-Foulkes estimate   =    -631.04953715 Ry
     estimated scf accuracy    <       0.00224506 Ry

     iteration #  3     ecut=    32.37 Ry     beta= 0.70
     Davidson diagonalization with overlap
     ethr =  8.02E-06,  avg # of iterations =  2.2

     total cpu time spent up to now is        3.2 secs

     total energy              =    -631.04950674 Ry
     Harris-Foulkes estimate   =    -631.04957458 Ry
     estimated scf accuracy    <       0.00010986 Ry

     iteration #  4     ecut=    32.37 Ry     beta= 0.70
     Davidson diagonalization with overlap
     ethr =  3.92E-07,  avg # of iterations =  2.2

     total cpu time spent up to now is        3.9 secs

     total energy              =    -631.04954797 Ry
     Harris-Foulkes estimate   =    -631.04955052 Ry
     estimated scf accuracy    <       0.00000861 Ry

     iteration #  5     ecut=    32.37 Ry     beta= 0.70
     Davidson diagonalization with overlap
     ethr =  3.07E-08,  avg # of iterations =  2.0

     total cpu time spent up to now is        4.6 secs

     total energy              =    -631.04954923 Ry
     Harris-Foulkes estimate   =    -631.04954930 Ry
     estimated scf accuracy    <       0.00000029 Ry

     iteration #  6     ecut=    32.37 Ry     beta= 0.70
     Davidson diagonalization with overlap
     ethr =  1.05E-09,  avg # of iterations =  2.6

     total cpu time spent up to now is        5.1 secs

     total energy              =    -631.04954927 Ry
     Harris-Foulkes estimate   =    -631.04954927 Ry
     estimated scf accuracy    <       0.00000001 Ry

     iteration #  7     ecut=    32.37 Ry     beta= 0.70
     Davidson diagonalization with overlap
     ethr =  4.15E-11,  avg # of iterations =  2.6

     total cpu time spent up to now is        5.8 secs

     End of self-consistent calculation

          k = 0.0000 0.0000 0.0000 (   869 PWs)   bands (ev):

   -14.5702 -14.5702 -14.5702 -14.5187 -14.5187 -14.2255 -14.2255 -14.2255
   -14.1880 -14.1880  -3.3988  10.5361  10.5361  10.5361

          k =-0.1667 0.1667-0.1667 (   830 PWs)   bands (ev):

   -14.5845 -14.5845 -14.5636 -14.4882 -14.4882 -14.2387 -14.2387 -14.2306
   -14.1723 -14.1723  -3.0149   7.3393   9.9095   9.9095

          k =-0.3333 0.3333-0.3333 (   823 PWs)   bands (ev):

   -14.5986 -14.5986 -14.5495 -14.4623 -14.4623 -14.2545 -14.2545 -14.2430
   -14.1619 -14.1619  -1.9352   3.9756   9.1665   9.1665

          k = 0.5000-0.5000 0.5000 (   832 PWs)   bands (ev):

   -14.6032 -14.6032 -14.5461 -14.4563 -14.4563 -14.2585 -14.2585 -14.2522
   -14.1576 -14.1576  -0.9389   2.1898   8.8962   8.8962

          k = 0.0000 0.3333 0.0000 (   837 PWs)   bands (ev):

   -14.5843 -14.5816 -14.5816 -14.4909 -14.4621 -14.2909 -14.2084 -14.2000
   -14.2000 -14.1665  -2.8840   7.5627   8.9896   8.9896

          k =-0.1667 0.5000-0.1667 (   832 PWs)   bands (ev):

   -14.6110 -14.5955 -14.5569 -14.4618 -14.4253 -14.3279 -14.2391 -14.2144
   -14.1735 -14.1502  -2.0153   4.8917   7.9267   8.2863

          k = 0.6667-0.3333 0.6667 (   824 PWs)   bands (ev):

   -14.6258 -14.6063 -14.5235 -14.4355 -14.4256 -14.3177 -14.2719 -14.2499
   -14.1510 -14.1337  -0.7600   2.5285   6.9995   8.2209

          k = 0.5000-0.1667 0.5000 (   826 PWs)   bands (ev):

   -14.6203 -14.6124 -14.5148 -14.4542 -14.4249 -14.2938 -14.2801 -14.2567
   -14.1451 -14.1415  -1.1623   3.1742   6.7211   8.7982

          k = 0.3333 0.0000 0.3333 (   829 PWs)   bands (ev):

   -14.6041 -14.5978 -14.5471 -14.4763 -14.4505 -14.2762 -14.2636 -14.2127
   -14.1778 -14.1504  -2.3887   5.7006   7.5272   9.7274

          k = 0.0000 0.6667 0.0000 (   829 PWs)   bands (ev):

   -14.6040 -14.6040 -14.5684 -14.4291 -14.4005 -14.3664 -14.2646 -14.1923
   -14.1591 -14.1591  -1.3662   4.1401   7.4694   7.4694

          k = 0.8333-0.1667 0.8333 (   816 PWs)   bands (ev):

   -14.6292 -14.6112 -14.5185 -14.4247 -14.3897 -14.3371 -14.3044 -14.2451
   -14.1409 -14.1256  -0.1233   2.4181   6.1314   7.2915

          k = 0.6667-0.0000 0.6667 (   816 PWs)   bands (ev):

   -14.6404 -14.6149 -14.4948 -14.3894 -14.3779 -14.3624 -14.3280 -14.2671
   -14.1370 -14.1157   0.0649   2.2180   5.2883   7.8191

          k = 0.0000-1.0000 0.0000 (   806 PWs)   bands (ev):

   -14.6109 -14.6109 -14.5022 -14.5015 -14.3424 -14.3415 -14.2668 -14.2660
   -14.1366 -14.1366   1.0515   1.0516   6.9302   6.9302

          k = 0.6667-0.3333 1.0000 (   822 PWs)   bands (ev):

   -14.6221 -14.6199 -14.5140 -14.4327 -14.3841 -14.3664 -14.2704 -14.2524
   -14.1384 -14.1362  -0.9603   3.4544   6.1972   7.6494

          k = 0.5000-0.1667 0.8333 (   826 PWs)   bands (ev):

   -14.6375 -14.6233 -14.4841 -14.4092 -14.3740 -14.3672 -14.3120 -14.2766
   -14.1317 -14.1202   0.0740   2.1583   5.6921   7.1242

          k =-0.3333-1.0000 0.0000 (   820 PWs)   bands (ev):

   -14.6311 -14.6310 -14.4558 -14.4552 -14.3510 -14.3502 -14.3032 -14.3025
   -14.1227 -14.1226   1.1602   1.1603   6.1267   6.1270

     highest occupied level (ev):    10.5361

!    total energy              =    -631.04954927 Ry
     Harris-Foulkes estimate   =    -631.04954927 Ry
     estimated scf accuracy    <          3.5E-09 Ry

     total all-electron energy =     -8395.962810 Ry

     The total energy is the sum of the following terms:

     one-electron contribution =    -269.35855433 Ry
     hartree contribution      =     156.79759056 Ry
     xc contribution           =    -113.89449007 Ry
     ewald contribution        =    -207.02204251 Ry
     one-center paw contrib.   =    -197.57205291 Ry

     convergence has been achieved in   7 iterations

     Forces acting on atoms (cartesian axes, Ry/au):

     atom    1 type  1   force =     0.00000000    0.00000000    0.00000000
     atom    2 type  1   force =    -0.00000000   -0.00000000   -0.00000000

     Total force =     0.000000     Total SCF correction =     0.000000


     Computing stress (Cartesian axis) and pressure

          total   stress  (Ry/bohr**3)                   (kbar)     P=  146.04
   0.00099279  -0.00000000   0.00000000        146.04     -0.00      0.00
  -0.00000000   0.00099279  -0.00000000         -0.00    146.04     -0.00
  -0.00000000  -0.00000000   0.00099279         -0.00     -0.00    146.04


     Writing output data file germanium.save/
 
     init_run     :      0.53s CPU      0.55s WALL (       1 calls)
     electrons    :      4.63s CPU      4.64s WALL (       1 calls)
     forces       :      0.04s CPU      0.04s WALL (       1 calls)
     stress       :      0.10s CPU      0.10s WALL (       1 calls)

     Called by init_run:
     wfcinit      :      0.16s CPU      0.17s WALL (       1 calls)
     potinit      :      0.18s CPU      0.18s WALL (       1 calls)
     hinit0       :      0.18s CPU      0.19s WALL (       1 calls)

     Called by electrons:
     c_bands      :      2.82s CPU      2.83s WALL (       8 calls)
     sum_band     :      0.55s CPU      0.55s WALL (       8 calls)
     v_of_rho     :      0.05s CPU      0.04s WALL (       8 calls)
     newd         :      0.05s CPU      0.06s WALL (       8 calls)
     PAW_pot      :      1.34s CPU      1.34s WALL (       8 calls)
     mix_rho      :      0.00s CPU      0.00s WALL (       8 calls)

     Called by c_bands:
     init_us_2    :      0.06s CPU      0.04s WALL (     304 calls)
     cegterg      :      2.60s CPU      2.62s WALL (     128 calls)

     Called by sum_band:
     sum_band:bec :      0.00s CPU      0.00s WALL (     128 calls)
     addusdens    :      0.07s CPU      0.07s WALL (       8 calls)

     Called by *egterg:
     h_psi        :      2.28s CPU      2.31s WALL (     409 calls)
     s_psi        :      0.11s CPU      0.10s WALL (     409 calls)
     g_psi        :      0.00s CPU      0.01s WALL (     265 calls)
     cdiaghg      :      0.10s CPU      0.08s WALL (     377 calls)

     Called by h_psi:
     h_psi:pot    :      2.28s CPU      2.31s WALL (     409 calls)
     h_psi:calbec :      0.09s CPU      0.11s WALL (     409 calls)
     vloc_psi     :      2.09s CPU      2.10s WALL (     409 calls)
     add_vuspsi   :      0.10s CPU      0.10s WALL (     409 calls)

     General routines
     calbec       :      0.15s CPU      0.17s WALL (     617 calls)
     fft          :      0.04s CPU      0.02s WALL (     115 calls)
     ffts         :      0.00s CPU      0.00s WALL (       8 calls)
     fftw         :      2.41s CPU      2.40s WALL (   11288 calls)
 
     Parallel routines
 
     PWSCF        :     5.94s CPU         6.02s WALL

 
   This run was terminated on:  15:55:23  10May2022            

=------------------------------------------------------------------------------=
   JOB DONE.
=------------------------------------------------------------------------------=
