
     Program PWSCF v.6.3MaX starts on 10May2022 at 15:54:33 

     This program is part of the open-source Quantum ESPRESSO suite
     for quantum simulation of materials; please cite
         "P. Giannozzi et al., J. Phys.:Condens. Matter 21 395502 (2009);
         "P. Giannozzi et al., J. Phys.:Condens. Matter 29 465901 (2017);
          URL http://www.quantum-espresso.org", 
     in publications or presentations arising from this work. More details at
     http://www.quantum-espresso.org/quote

     Parallel version (MPI), running on     1 processors

     MPI processes distributed on     1 nodes
     Waiting for input...
     Reading input from standard input

     Current dimensions of program PWSCF are:
     Max number of different atomic species (ntypx) = 10
     Max number of k-points (npk) =  40000
     Max angular momentum in pseudopotentials (lmaxx) =  3
               file Ge.pbe-dn-kjpaw_psl.0.2.2.UPF: wavefunction(s)  4P 3D renormalized

     Subspace diagonalization in iterative solution of the eigenvalue problem:
     a serial algorithm will be used

 
     G-vector sticks info
     --------------------
     sticks:   dense  smooth     PW     G-vecs:    dense   smooth      PW
     Sum         241     241     85                 2421     2421     531
 


     bravais-lattice index     =            2
     lattice parameter (alat)  =      10.2000  a.u.
     unit-cell volume          =     265.3020 (a.u.)^3
     number of atoms/cell      =            2
     number of atomic types    =            1
     number of electrons       =        28.00
     number of Kohn-Sham states=           14
     kinetic-energy cutoff     =      16.5790  Ry
     charge density cutoff     =      66.3160  Ry
     convergence threshold     =      1.0E-08
     mixing beta               =       0.7000
     number of iterations used =            8  plain     mixing
     Exchange-correlation      = SLA PW PBX PBC ( 1  4  3  4 0 0)

     celldm(1)=  10.200000  celldm(2)=   0.000000  celldm(3)=   0.000000
     celldm(4)=   0.000000  celldm(5)=   0.000000  celldm(6)=   0.000000

     crystal axes: (cart. coord. in units of alat)
               a(1) = (  -0.500000   0.000000   0.500000 )  
               a(2) = (   0.000000   0.500000   0.500000 )  
               a(3) = (  -0.500000   0.500000   0.000000 )  

     reciprocal axes: (cart. coord. in units 2 pi/alat)
               b(1) = ( -1.000000 -1.000000  1.000000 )  
               b(2) = (  1.000000  1.000000  1.000000 )  
               b(3) = ( -1.000000  1.000000 -1.000000 )  


     PseudoPot. # 1 for Ge read from file:
     ../../PP/Ge.pbe-dn-kjpaw_psl.0.2.2.UPF
     MD5 check sum: acf6dd3aa1b4e03129ff8bf786ac0282
     Pseudo is Projector augmented-wave + core cor, Zval = 14.0
     Generated using "atomic" code by A. Dal Corso v.5.0.2 svn rev. 9415
     Shape of augmentation charge: PSQ
     Using radial grid of 1207 points,  6 beta functions with: 
                l(1) =   0
                l(2) =   0
                l(3) =   1
                l(4) =   1
                l(5) =   2
                l(6) =   2
     Q(r) pseudized with 0 coefficients 


     atomic species   valence    mass     pseudopotential
        Ge            14.00    28.08600     Ge( 1.00)

     48 Sym. Ops., with inversion, found (24 have fractional translation)



   Cartesian axes

     site n.     atom                  positions (alat units)
         1           Ge  tau(   1) = (   0.0000000   0.0000000   0.0000000  )
         2           Ge  tau(   2) = (  -0.2500000   0.2500000   0.2500000  )

     number of k points=    16
                       cart. coord. in units 2pi/alat
        k(    1) = (   0.0000000   0.0000000   0.0000000), wk =   0.0092593
        k(    2) = (  -0.1666667   0.1666667  -0.1666667), wk =   0.0740741
        k(    3) = (  -0.3333333   0.3333333  -0.3333333), wk =   0.0740741
        k(    4) = (   0.5000000  -0.5000000   0.5000000), wk =   0.0370370
        k(    5) = (   0.0000000   0.3333333   0.0000000), wk =   0.0555556
        k(    6) = (  -0.1666667   0.5000000  -0.1666667), wk =   0.2222222
        k(    7) = (   0.6666667  -0.3333333   0.6666667), wk =   0.2222222
        k(    8) = (   0.5000000  -0.1666667   0.5000000), wk =   0.2222222
        k(    9) = (   0.3333333   0.0000000   0.3333333), wk =   0.1111111
        k(   10) = (   0.0000000   0.6666667   0.0000000), wk =   0.0555556
        k(   11) = (   0.8333333  -0.1666667   0.8333333), wk =   0.2222222
        k(   12) = (   0.6666667  -0.0000000   0.6666667), wk =   0.1111111
        k(   13) = (   0.0000000  -1.0000000   0.0000000), wk =   0.0277778
        k(   14) = (   0.6666667  -0.3333333   1.0000000), wk =   0.2222222
        k(   15) = (   0.5000000  -0.1666667   0.8333333), wk =   0.2222222
        k(   16) = (  -0.3333333  -1.0000000   0.0000000), wk =   0.1111111

     Dense  grid:     2421 G-vectors     FFT dimensions: (  20,  20,  20)

     Estimated max dynamical RAM per process >      11.31 MB

     Check: negative/imaginary core charge=   -0.003351    0.000000

     Initial potential from superposition of free atoms

     starting charge   27.99847, renormalised to   28.00000
     Starting wfcs are   18 randomized atomic wfcs
     Checking if some PAW data can be deallocated... 

     total cpu time spent up to now is        1.0 secs

     Self-consistent Calculation

     iteration #  1     ecut=    16.58 Ry     beta= 0.70
     Davidson diagonalization with overlap
     ethr =  1.00E-02,  avg # of iterations =  2.0

     total cpu time spent up to now is        1.4 secs

     total energy              =    -623.82846900 Ry
     Harris-Foulkes estimate   =    -625.02945150 Ry
     estimated scf accuracy    <       1.39111462 Ry

     iteration #  2     ecut=    16.58 Ry     beta= 0.70
     Davidson diagonalization with overlap
     ethr =  4.97E-03,  avg # of iterations =  2.0

     total cpu time spent up to now is        1.7 secs

     total energy              =    -624.26154757 Ry
     Harris-Foulkes estimate   =    -624.32579540 Ry
     estimated scf accuracy    <       0.08297908 Ry

     iteration #  3     ecut=    16.58 Ry     beta= 0.70
     Davidson diagonalization with overlap
     ethr =  2.96E-04,  avg # of iterations =  2.0

     total cpu time spent up to now is        2.1 secs

     total energy              =    -624.28104148 Ry
     Harris-Foulkes estimate   =    -624.28092649 Ry
     estimated scf accuracy    <       0.00042520 Ry

     iteration #  4     ecut=    16.58 Ry     beta= 0.70
     Davidson diagonalization with overlap
     ethr =  1.52E-06,  avg # of iterations =  3.0

     total cpu time spent up to now is        2.4 secs

     total energy              =    -624.28111941 Ry
     Harris-Foulkes estimate   =    -624.28110318 Ry
     estimated scf accuracy    <       0.00003024 Ry

     iteration #  5     ecut=    16.58 Ry     beta= 0.70
     Davidson diagonalization with overlap
     ethr =  1.08E-07,  avg # of iterations =  2.3

     total cpu time spent up to now is        2.7 secs

     total energy              =    -624.28111980 Ry
     Harris-Foulkes estimate   =    -624.28112067 Ry
     estimated scf accuracy    <       0.00000008 Ry

     iteration #  6     ecut=    16.58 Ry     beta= 0.70
     Davidson diagonalization with overlap
     ethr =  2.85E-10,  avg # of iterations =  3.9

     total cpu time spent up to now is        3.1 secs

     total energy              =    -624.28112005 Ry
     Harris-Foulkes estimate   =    -624.28111987 Ry
     estimated scf accuracy    <       0.00000004 Ry

     iteration #  7     ecut=    16.58 Ry     beta= 0.70
     Davidson diagonalization with overlap
     ethr =  1.27E-10,  avg # of iterations =  2.6

     total cpu time spent up to now is        3.4 secs

     End of self-consistent calculation

          k = 0.0000 0.0000 0.0000 (   307 PWs)   bands (ev):

   -19.9505 -19.9505 -18.7974 -18.7974 -18.7974 -18.3718 -18.3718 -18.3718
   -15.7277 -15.7277  -3.7746  10.2027  10.2027  10.2027

          k =-0.1667 0.1667-0.1667 (   310 PWs)   bands (ev):

   -19.7470 -19.7470 -19.2322 -19.2322 -19.1667 -18.1382 -18.1382 -17.6056
   -17.4371 -17.4371  -3.3975   6.7940   9.6193   9.6193

          k =-0.3333 0.3333-0.3333 (   302 PWs)   bands (ev):

   -19.1416 -19.1416 -18.9449 -18.4250 -18.4250 -17.9228 -17.9228 -17.6337
   -16.2356 -16.2356  -2.3448   3.5197   8.9250   8.9250

          k = 0.5000-0.5000 0.5000 (   302 PWs)   bands (ev):

   -20.1739 -20.1739 -19.0048 -19.0048 -17.5035 -16.8028 -16.8028 -16.6179
   -16.0928 -16.0928  -1.3883   1.7949   8.6736   8.6736

          k = 0.0000 0.3333 0.0000 (   303 PWs)   bands (ev):

   -19.6874 -18.9305 -18.9305 -18.7746 -18.2684 -18.1821 -17.8226 -17.7600
   -16.5136 -16.5136  -3.2676   6.8888   8.7348   8.7348

          k =-0.1667 0.5000-0.1667 (   305 PWs)   bands (ev):

   -19.1913 -19.1810 -18.9360 -18.7135 -18.6775 -18.1721 -18.0785 -17.8815
   -17.2900 -16.1339  -2.4191   4.3603   7.5704   8.0656

          k = 0.6667-0.3333 0.6667 (   307 PWs)   bands (ev):

   -20.1102 -19.3386 -18.8500 -18.7057 -18.7027 -17.9680 -17.9649 -17.1833
   -17.0871 -16.8782  -1.2074   2.0916   6.6317   8.0116

          k = 0.5000-0.1667 0.5000 (   299 PWs)   bands (ev):

   -19.2691 -18.7987 -18.6558 -18.5640 -18.1196 -17.8479 -17.0914 -16.7218
   -16.3358 -16.1523  -1.5926   2.7116   6.3782   8.5703

          k = 0.3333 0.0000 0.3333 (   303 PWs)   bands (ev):

   -19.3508 -19.1962 -18.8484 -18.4856 -18.1473 -17.6622 -17.5795 -17.4217
   -17.3526 -17.1149  -2.7844   5.1463   7.2203   9.4566

          k = 0.0000 0.6667 0.0000 (   310 PWs)   bands (ev):

   -19.5301 -19.1123 -18.9209 -18.9173 -18.9005 -18.9005 -18.7202 -18.1817
   -17.2509 -17.2509  -1.7829   3.5681   7.2775   7.2775

          k = 0.8333-0.1667 0.8333 (   303 PWs)   bands (ev):

   -19.0740 -19.0288 -18.7444 -18.5730 -18.4475 -18.1907 -17.6750 -17.5396
   -16.9280 -16.3426  -0.5737   1.9069   5.8725   7.1109

          k = 0.6667-0.0000 0.6667 (   293 PWs)   bands (ev):

   -18.8900 -18.5655 -18.1694 -18.1057 -17.8334 -17.5524 -16.8216 -15.8908
   -15.6781 -15.3358  -0.4001   1.7263   5.0128   7.6227

          k = 0.0000-1.0000 0.0000 (   302 PWs)   bands (ev):

   -18.7762 -18.7762 -18.6709 -18.6709 -18.1494 -18.1494 -17.8365 -17.8365
   -16.5861 -16.5861   0.5748   0.5748   6.7631   6.7631

          k = 0.6667-0.3333 1.0000 (   305 PWs)   bands (ev):

   -19.2830 -19.2208 -18.7605 -18.5408 -18.5264 -18.1554 -18.0080 -17.9679
   -16.8617 -16.6510  -1.3905   2.9251   5.9134   7.3978

          k = 0.5000-0.1667 0.8333 (   304 PWs)   bands (ev):

   -19.2941 -19.0671 -18.7169 -18.7080 -18.3012 -18.2710 -17.5218 -17.4679
   -17.0286 -16.6063  -0.3934   1.6788   5.3945   6.8794

          k =-0.3333-1.0000 0.0000 (   294 PWs)   bands (ev):

   -18.3461 -18.3461 -18.1693 -18.1693 -17.4880 -17.4880 -17.1130 -17.1130
   -15.8938 -15.8938   0.6761   0.6761   5.8780   5.8780

     highest occupied level (ev):    10.2027

!    total energy              =    -624.28112009 Ry
     Harris-Foulkes estimate   =    -624.28112006 Ry
     estimated scf accuracy    <          4.2E-11 Ry

     total all-electron energy =     -8389.194381 Ry

     The total energy is the sum of the following terms:

     one-electron contribution =    -252.30448239 Ry
     hartree contribution      =     144.93882203 Ry
     xc contribution           =    -111.48931655 Ry
     ewald contribution        =    -207.02204253 Ry
     one-center paw contrib.   =    -198.40410065 Ry

     convergence has been achieved in   7 iterations

     Forces acting on atoms (cartesian axes, Ry/au):

     atom    1 type  1   force =    -0.00000000   -0.00000000    0.00000000
     atom    2 type  1   force =     0.00000000    0.00000000   -0.00000000

     Total force =     0.000000     Total SCF correction =     0.000000


     Computing stress (Cartesian axis) and pressure

          total   stress  (Ry/bohr**3)                   (kbar)     P=********
  -0.10542301   0.00000000   0.00000000     -15508.26      0.00      0.00
   0.00000000  -0.10542301  -0.00000000          0.00 -15508.26     -0.00
   0.00000000  -0.00000000  -0.10542301          0.00     -0.00 -15508.26


     Writing output data file germanium.save/
 
     init_run     :      0.37s CPU      0.38s WALL (       1 calls)
     electrons    :      2.40s CPU      2.41s WALL (       1 calls)
     forces       :      0.01s CPU      0.02s WALL (       1 calls)
     stress       :      0.04s CPU      0.04s WALL (       1 calls)

     Called by init_run:
     wfcinit      :      0.06s CPU      0.06s WALL (       1 calls)
     potinit      :      0.18s CPU      0.17s WALL (       1 calls)
     hinit0       :      0.13s CPU      0.13s WALL (       1 calls)

     Called by electrons:
     c_bands      :      1.01s CPU      1.02s WALL (       7 calls)
     sum_band     :      0.18s CPU      0.18s WALL (       7 calls)
     v_of_rho     :      0.02s CPU      0.02s WALL (       8 calls)
     newd         :      0.02s CPU      0.02s WALL (       8 calls)
     PAW_pot      :      1.34s CPU      1.34s WALL (       8 calls)
     mix_rho      :      0.00s CPU      0.00s WALL (       7 calls)

     Called by c_bands:
     init_us_2    :      0.01s CPU      0.01s WALL (     272 calls)
     cegterg      :      0.93s CPU      0.95s WALL (     112 calls)

     Called by sum_band:
     sum_band:bec :      0.00s CPU      0.00s WALL (     112 calls)
     addusdens    :      0.03s CPU      0.02s WALL (       7 calls)

     Called by *egterg:
     h_psi        :      0.80s CPU      0.79s WALL (     412 calls)
     s_psi        :      0.05s CPU      0.04s WALL (     412 calls)
     g_psi        :      0.01s CPU      0.00s WALL (     284 calls)
     cdiaghg      :      0.08s CPU      0.09s WALL (     396 calls)

     Called by h_psi:
     h_psi:pot    :      0.80s CPU      0.79s WALL (     412 calls)
     h_psi:calbec :      0.04s CPU      0.04s WALL (     412 calls)
     vloc_psi     :      0.71s CPU      0.71s WALL (     412 calls)
     add_vuspsi   :      0.05s CPU      0.04s WALL (     412 calls)

     General routines
     calbec       :      0.05s CPU      0.06s WALL (     604 calls)
     fft          :      0.02s CPU      0.01s WALL (     114 calls)
     ffts         :      0.00s CPU      0.00s WALL (       7 calls)
     fftw         :      0.79s CPU      0.80s WALL (   10492 calls)
 
     Parallel routines
 
     PWSCF        :     3.44s CPU         3.51s WALL

 
   This run was terminated on:  15:54:37  10May2022            

=------------------------------------------------------------------------------=
   JOB DONE.
=------------------------------------------------------------------------------=
