
     Program PWSCF v.6.3MaX starts on 12May2022 at 10:36:57 

     This program is part of the open-source Quantum ESPRESSO suite
     for quantum simulation of materials; please cite
         "P. Giannozzi et al., J. Phys.:Condens. Matter 21 395502 (2009);
         "P. Giannozzi et al., J. Phys.:Condens. Matter 29 465901 (2017);
          URL http://www.quantum-espresso.org", 
     in publications or presentations arising from this work. More details at
     http://www.quantum-espresso.org/quote

     Parallel version (MPI), running on    12 processors

     MPI processes distributed on     1 nodes
     R & G space division:  proc/nbgrp/npool/nimage =      12
     Waiting for input...
     Reading input from standard input

     Current dimensions of program PWSCF are:
     Max number of different atomic species (ntypx) = 10
     Max number of k-points (npk) =  40000
     Max angular momentum in pseudopotentials (lmaxx) =  3
               file Ge.pbe-dn-kjpaw_psl.0.2.2.UPF: wavefunction(s)  4P 3D renormalized

     Subspace diagonalization in iterative solution of the eigenvalue problem:
     one sub-group per band group will be used
     scalapack distributed-memory algorithm (size of sub-group:  2*  2 procs)

 
     Parallelization info
     --------------------
     sticks:   dense  smooth     PW     G-vecs:    dense   smooth      PW
     Min          43      43     15                  853      853     194
     Max          44      44     16                  856      856     199
     Sum         523     523    191                10251    10251    2375
 


     bravais-lattice index     =            0
     lattice parameter (alat)  =       8.3519  a.u.
     unit-cell volume          =     364.9211 (a.u.)^3
     number of atoms/cell      =            2
     number of atomic types    =            1
     number of electrons       =        28.00
     number of Kohn-Sham states=           14
     kinetic-energy cutoff     =      35.0000  Ry
     charge density cutoff     =     140.0000  Ry
     convergence threshold     =      1.0E-08
     mixing beta               =       0.7000
     number of iterations used =            8  plain     mixing
     Exchange-correlation      = SLA PW PBX PBC ( 1  4  3  4 0 0)
     nstep                     =           50


     celldm(1)=   8.351872  celldm(2)=   0.000000  celldm(3)=   0.000000
     celldm(4)=   0.000000  celldm(5)=   0.000000  celldm(6)=   0.000000

     crystal axes: (cart. coord. in units of alat)
               a(1) = (  -0.659763   0.659763   0.359759 )  
               a(2) = (   0.659763  -0.659763   0.359759 )  
               a(3) = (   0.659763   0.659763  -0.359759 )  

     reciprocal axes: (cart. coord. in units 2 pi/alat)
               b(1) = (  0.000000  0.757848  1.389818 )  
               b(2) = (  0.757848  0.000000  1.389818 )  
               b(3) = (  0.757848  0.757848  0.000000 )  


     PseudoPot. # 1 for Ge read from file:
     ../../PP/Ge.pbe-dn-kjpaw_psl.0.2.2.UPF
     MD5 check sum: acf6dd3aa1b4e03129ff8bf786ac0282
     Pseudo is Projector augmented-wave + core cor, Zval = 14.0
     Generated using "atomic" code by A. Dal Corso v.5.0.2 svn rev. 9415
     Shape of augmentation charge: PSQ
     Using radial grid of 1207 points,  6 beta functions with: 
                l(1) =   0
                l(2) =   0
                l(3) =   1
                l(4) =   1
                l(5) =   2
                l(6) =   2
     Q(r) pseudized with 0 coefficients 


     atomic species   valence    mass     pseudopotential
        Ge            14.00    72.64000     Ge( 1.00)

     16 Sym. Ops., with inversion, found (12 have fractional translation)



   Cartesian axes

     site n.     atom                  positions (alat units)
         1           Ge  tau(   1) = (   0.0000000   0.9896438   0.0899398  )
         2           Ge  tau(   2) = (   0.6597625  -0.3298813   0.2698195  )

     number of k points=    30
                       cart. coord. in units 2pi/alat
        k(    1) = (   0.0000000   0.0000000   0.0000000), wk =   0.0092593
        k(    2) = (   0.1263081   0.1263081   0.0000000), wk =   0.0370370
        k(    3) = (   0.2526161   0.2526161   0.0000000), wk =   0.0370370
        k(    4) = (  -0.3789242  -0.3789242   0.0000000), wk =   0.0185185
        k(    5) = (   0.1263081   0.0000000   0.2316363), wk =   0.0740741
        k(    6) = (   0.2526161   0.1263081   0.2316363), wk =   0.1481481
        k(    7) = (   0.3789242   0.2526161   0.2316363), wk =   0.1481481
        k(    8) = (   0.2526161   0.0000000   0.4632726), wk =   0.0740741
        k(    9) = (   0.3789242   0.1263081   0.4632726), wk =   0.1481481
        k(   10) = (   0.5052323   0.2526161   0.4632726), wk =   0.0740741
        k(   11) = (   0.1263081  -0.1263081   0.4632726), wk =   0.0740741
        k(   12) = (  -0.3789242   0.0000000  -0.6949089), wk =   0.0370370
        k(   13) = (  -0.2526161   0.1263081  -0.6949089), wk =   0.1481481
        k(   14) = (   0.2526161   0.2526161   0.4632726), wk =   0.0740741
        k(   15) = (   0.3789242   0.3789242   0.4632726), wk =   0.0370370
        k(   16) = (   0.0000000   0.0000000   0.4632726), wk =   0.0185185
        k(   17) = (   0.3789242   0.2526161   0.6949089), wk =   0.0740741
        k(   18) = (  -0.0000000  -0.1263081   0.6949089), wk =   0.0740741
        k(   19) = (  -0.7578484  -0.2526161  -0.4632726), wk =   0.0740741
        k(   20) = (  -0.6315404  -0.1263081  -0.4632726), wk =   0.0740741
        k(   21) = (  -0.0000000   0.3789242  -0.2316363), wk =   0.0740741
        k(   22) = (  -0.6315404  -0.2526161  -0.2316363), wk =   0.1481481
        k(   23) = (   0.0000000   0.2526161   0.0000000), wk =   0.0370370
        k(   24) = (   0.1263081   0.3789242   0.0000000), wk =   0.0740741
        k(   25) = (  -0.5052323  -0.2526161   0.0000000), wk =   0.0370370
        k(   26) = (  -0.0000000  -0.0000000   0.9265452), wk =   0.0185185
        k(   27) = (  -0.7578484  -0.1263081  -0.2316363), wk =   0.0740741
        k(   28) = (  -0.0000000   0.5052323  -0.0000000), wk =   0.0370370
        k(   29) = (  -0.6315404  -0.1263081  -0.0000000), wk =   0.0370370
        k(   30) = (  -0.7578484  -0.7578484  -1.3898178), wk =   0.0092593

     Dense  grid:    10251 G-vectors     FFT dimensions: (  32,  32,  32)

     Estimated max dynamical RAM per process >       6.47 MB

     Estimated total dynamical RAM >      77.70 MB

     Check: negative/imaginary core charge=   -0.000142    0.000000

     Initial potential from superposition of free atoms

     starting charge   27.99847, renormalised to   28.00000
     Starting wfcs are   18 randomized atomic wfcs
     Checking if some PAW data can be deallocated... 

     total cpu time spent up to now is        1.1 secs

     Self-consistent Calculation

     iteration #  1     ecut=    35.00 Ry     beta= 0.70
     Davidson diagonalization with overlap
     ethr =  1.00E-02,  avg # of iterations =  1.4

     Threshold (ethr) on eigenvalues was too large:
     Diagonalizing with lowered threshold

     Davidson diagonalization with overlap
     ethr =  2.30E-05,  avg # of iterations =  3.5

     total cpu time spent up to now is        1.6 secs

     total energy              =    -630.96497414 Ry
     Harris-Foulkes estimate   =    -630.96688725 Ry
     estimated scf accuracy    <       0.00644852 Ry

     iteration #  2     ecut=    35.00 Ry     beta= 0.70
     Davidson diagonalization with overlap
     ethr =  2.30E-05,  avg # of iterations =  2.1

     total cpu time spent up to now is        1.9 secs

     total energy              =    -630.96574140 Ry
     Harris-Foulkes estimate   =    -630.96589069 Ry
     estimated scf accuracy    <       0.00049072 Ry

     iteration #  3     ecut=    35.00 Ry     beta= 0.70
     Davidson diagonalization with overlap
     ethr =  1.75E-06,  avg # of iterations =  3.0

     total cpu time spent up to now is        2.3 secs

     total energy              =    -630.96588564 Ry
     Harris-Foulkes estimate   =    -630.96590161 Ry
     estimated scf accuracy    <       0.00005909 Ry

     iteration #  4     ecut=    35.00 Ry     beta= 0.70
     Davidson diagonalization with overlap
     ethr =  2.11E-07,  avg # of iterations =  2.6

     total cpu time spent up to now is        2.6 secs

     total energy              =    -630.96589809 Ry
     Harris-Foulkes estimate   =    -630.96589725 Ry
     estimated scf accuracy    <       0.00000209 Ry

     iteration #  5     ecut=    35.00 Ry     beta= 0.70
     Davidson diagonalization with overlap
     ethr =  7.48E-09,  avg # of iterations =  4.0

     total cpu time spent up to now is        3.0 secs

     total energy              =    -630.96589853 Ry
     Harris-Foulkes estimate   =    -630.96589855 Ry
     estimated scf accuracy    <       0.00000005 Ry

     iteration #  6     ecut=    35.00 Ry     beta= 0.70
     Davidson diagonalization with overlap
     ethr =  1.68E-10,  avg # of iterations =  3.8

     total cpu time spent up to now is        3.4 secs

     total energy              =    -630.96589855 Ry
     Harris-Foulkes estimate   =    -630.96589855 Ry
     estimated scf accuracy    <       0.00000002 Ry

     iteration #  7     ecut=    35.00 Ry     beta= 0.70
     Davidson diagonalization with overlap
     ethr =  6.04E-11,  avg # of iterations =  2.5

     total cpu time spent up to now is        3.7 secs

     End of self-consistent calculation

          k = 0.0000 0.0000 0.0000 (  1277 PWs)   bands (ev):

   -18.3604 -18.3471 -18.3292 -18.3016 -18.3016 -18.2989 -18.2989 -18.2852
   -18.2351 -18.2253  -4.3847   1.0464   4.8444   4.8444

          k = 0.1263 0.1263 0.0000 (  1275 PWs)   bands (ev):

   -18.3606 -18.3494 -18.3258 -18.3026 -18.3002 -18.2980 -18.2950 -18.2809
   -18.2378 -18.2307  -4.1664   0.3046   5.0846   5.2689

          k = 0.2526 0.2526 0.0000 (  1269 PWs)   bands (ev):

   -18.3603 -18.3542 -18.3189 -18.3061 -18.2974 -18.2961 -18.2834 -18.2708
   -18.2458 -18.2457  -3.5193  -1.1171   5.7969   6.1614

          k =-0.3789-0.3789 0.0000 (  1286 PWs)   bands (ev):

   -18.3585 -18.3585 -18.3120 -18.3120 -18.2956 -18.2956 -18.2658 -18.2658
   -18.2580 -18.2580  -2.4745  -2.4745   6.9542   6.9542

          k = 0.1263 0.0000 0.2316 (  1270 PWs)   bands (ev):

   -18.3492 -18.3383 -18.3241 -18.3071 -18.3033 -18.3010 -18.3003 -18.2810
   -18.2369 -18.2293  -3.9081   0.9633   4.8996   5.7347

          k = 0.2526 0.1263 0.2316 (  1278 PWs)   bands (ev):

   -18.3497 -18.3412 -18.3237 -18.3071 -18.3023 -18.2996 -18.2910 -18.2743
   -18.2420 -18.2391  -3.4793  -0.0966   4.8901   6.8127

          k = 0.3789 0.2526 0.2316 (  1275 PWs)   bands (ev):

   -18.3492 -18.3458 -18.3186 -18.3119 -18.2994 -18.2980 -18.2752 -18.2633
   -18.2560 -18.2511  -2.6424  -1.4574   5.5821   6.7892

          k = 0.2526 0.0000 0.4633 (  1268 PWs)   bands (ev):

   -18.3319 -18.3260 -18.3213 -18.3169 -18.3071 -18.3016 -18.2896 -18.2727
   -18.2417 -18.2390  -2.5531   0.9351   5.2004   5.2084

          k = 0.3789 0.1263 0.4633 (  1268 PWs)   bands (ev):

   -18.3313 -18.3288 -18.3262 -18.3126 -18.3080 -18.2984 -18.2802 -18.2662
   -18.2488 -18.2464  -1.9729   0.0312   4.3544   5.5274

          k = 0.5052 0.2526 0.4633 (  1276 PWs)   bands (ev):

   -18.3323 -18.3319 -18.3203 -18.3196 -18.3014 -18.2991 -18.2745 -18.2614
   -18.2560 -18.2508  -1.2066  -0.9008   4.0750   6.0331

          k = 0.1263-0.1263 0.4633 (  1270 PWs)   bands (ev):

   -18.3301 -18.3300 -18.3178 -18.3116 -18.3087 -18.3053 -18.2945 -18.2750
   -18.2400 -18.2354  -2.7527   1.2831   5.3299   5.9056

          k =-0.3789 0.0000-0.6949 (  1278 PWs)   bands (ev):

   -18.3299 -18.3271 -18.3215 -18.3172 -18.3106 -18.2928 -18.2794 -18.2673
   -18.2457 -18.2454  -1.1804   0.5043   3.7131   5.0166

          k =-0.2526 0.1263-0.6949 (  1272 PWs)   bands (ev):

   -18.3320 -18.3277 -18.3213 -18.3139 -18.3071 -18.2960 -18.2807 -18.2672
   -18.2461 -18.2444  -1.2055   0.6080   3.3819   4.9775

          k = 0.2526 0.2526 0.4633 (  1275 PWs)   bands (ev):

   -18.3331 -18.3297 -18.3257 -18.3168 -18.3022 -18.2977 -18.2823 -18.2665
   -18.2483 -18.2455  -2.1448   0.0481   4.9952   5.3517

          k = 0.3789 0.3789 0.4633 (  1260 PWs)   bands (ev):

   -18.3315 -18.3315 -18.3244 -18.3244 -18.2971 -18.2971 -18.2646 -18.2646
   -18.2557 -18.2557  -1.1774  -1.1774   4.9895   4.9895

          k = 0.0000 0.0000 0.4633 (  1261 PWs)   bands (ev):

   -18.3272 -18.3258 -18.3168 -18.3168 -18.3068 -18.3068 -18.3010 -18.2782
   -18.2375 -18.2314  -2.9592   1.9011   5.8019   5.8019

          k = 0.3789 0.2526 0.6949 (  1266 PWs)   bands (ev):

   -18.3318 -18.3285 -18.3278 -18.3215 -18.2966 -18.2911 -18.2735 -18.2611
   -18.2548 -18.2497  -0.8124   0.0556   3.2775   4.0772

          k =-0.0000-0.1263 0.6949 (  1280 PWs)   bands (ev):

   -18.3288 -18.3211 -18.3178 -18.3135 -18.3103 -18.3073 -18.2847 -18.2711
   -18.2418 -18.2400  -1.4609   1.1436   3.6590   5.4105

          k =-0.7578-0.2526-0.4633 (  1274 PWs)   bands (ev):

   -18.3316 -18.3270 -18.3176 -18.3162 -18.3075 -18.3029 -18.2807 -18.2655
   -18.2503 -18.2470  -1.5079  -0.1446   4.0905   4.2984

          k =-0.6315-0.1263-0.4633 (  1283 PWs)   bands (ev):

   -18.3303 -18.3288 -18.3136 -18.3125 -18.3077 -18.3073 -18.2828 -18.2651
   -18.2510 -18.2471  -1.0845  -0.4433   3.7032   4.6222

          k =-0.0000 0.3789-0.2316 (  1280 PWs)   bands (ev):

   -18.3493 -18.3432 -18.3188 -18.3068 -18.3027 -18.3014 -18.2843 -18.2697
   -18.2473 -18.2453  -3.0714  -0.4332   3.7412   6.3555

          k =-0.6315-0.2526-0.2316 (  1280 PWs)   bands (ev):

   -18.3492 -18.3451 -18.3130 -18.3079 -18.3027 -18.2998 -18.2771 -18.2625
   -18.2590 -18.2513  -2.2997  -1.2895   3.8112   4.8359

          k = 0.0000 0.2526 0.0000 (  1273 PWs)   bands (ev):

   -18.3606 -18.3512 -18.3229 -18.3016 -18.3005 -18.2988 -18.2909 -18.2774
   -18.2402 -18.2361  -3.9519  -0.0563   3.9921   6.8565

          k = 0.1263 0.3789 0.0000 (  1279 PWs)   bands (ev):

   -18.3599 -18.3550 -18.3162 -18.3043 -18.2981 -18.2975 -18.2822 -18.2687
   -18.2500 -18.2471  -3.3203  -1.0970   3.9624   6.3564

          k =-0.5052-0.2526 0.0000 (  1292 PWs)   bands (ev):

   -18.3584 -18.3584 -18.3096 -18.3096 -18.2965 -18.2965 -18.2675 -18.2675
   -18.2576 -18.2576  -2.3199  -2.3199   4.8589   4.8589

          k =-0.0000-0.0000 0.9265 (  1294 PWs)   bands (ev):

   -18.3275 -18.3237 -18.3156 -18.3156 -18.3074 -18.3074 -18.2869 -18.2668
   -18.2497 -18.2459  -1.0051  -0.1660   3.9300   3.9300

          k =-0.7578-0.1263-0.2316 (  1282 PWs)   bands (ev):

   -18.3492 -18.3440 -18.3061 -18.3058 -18.3036 -18.3013 -18.2815 -18.2621
   -18.2615 -18.2514  -1.7437  -1.2556   2.9544   3.4069

          k =-0.0000 0.5052-0.0000 (  1282 PWs)   bands (ev):

   -18.3592 -18.3567 -18.3093 -18.3011 -18.2995 -18.2982 -18.2789 -18.2634
   -18.2604 -18.2506  -2.7524  -1.2724   2.8885   4.4447

          k =-0.6315-0.1263-0.0000 (  1282 PWs)   bands (ev):

   -18.3580 -18.3580 -18.3039 -18.3039 -18.2979 -18.2979 -18.2721 -18.2721
   -18.2567 -18.2567  -1.9456  -1.9456   3.1592   3.1592

          k =-0.7578-0.7578-1.3898 (  1290 PWs)   bands (ev):

   -18.3578 -18.3578 -18.3011 -18.3011 -18.2983 -18.2983 -18.2752 -18.2752
   -18.2564 -18.2564  -1.7059  -1.7059   2.4712   2.4712

     highest occupied level (ev):     6.9542

!    total energy              =    -630.96589855 Ry
     Harris-Foulkes estimate   =    -630.96589855 Ry
     estimated scf accuracy    <          5.3E-11 Ry

     total all-electron energy =     -8395.879160 Ry

     The total energy is the sum of the following terms:

     one-electron contribution =    -281.24556463 Ry
     hartree contribution      =     158.70969813 Ry
     xc contribution           =    -113.33800970 Ry
     ewald contribution        =    -197.54420888 Ry
     one-center paw contrib.   =    -197.54781346 Ry

     convergence has been achieved in   7 iterations

     Forces acting on atoms (cartesian axes, Ry/au):

     atom    1 type  1   force =     0.00000000    0.00000000    0.00000000
     atom    2 type  1   force =     0.00000000    0.00000000    0.00000000

     Total force =     0.000000     Total SCF correction =     0.000000


     Computing stress (Cartesian axis) and pressure

          total   stress  (Ry/bohr**3)                   (kbar)     P=  -76.30
  -0.00039829   0.00000000  -0.00000000        -58.59      0.00     -0.00
   0.00000000  -0.00039829   0.00000000          0.00    -58.59      0.00
   0.00000000   0.00000000  -0.00075946          0.00      0.00   -111.72


     BFGS Geometry Optimization

     number of scf cycles    =   1
     number of bfgs steps    =   0

     enthalpy new            =    -630.9658985488 Ry

     new trust radius        =       0.0725396721 bohr
     new conv_thr            =       0.0000000100 Ry

     new unit-cell volume =    350.89881 a.u.^3 (    51.99784 Ang^3 )
     density =      4.63948 g/cm^3

CELL_PARAMETERS (angstrom)
  -2.886865859   2.886865859   1.559811382
   2.886865859  -2.886865859   1.559811382
   2.886865859   2.886865859  -1.559811382

ATOMIC_POSITIONS (crystal)
Ge       0.875000000   0.125000000   0.750000000    0   0   0
Ge       0.125000000   0.875000000   0.250000000    0   0   0



     Writing output data file germanium.save/
     NEW-OLD atomic charge density approx. for the potential

     Check: negative/imaginary core charge=   -0.000122    0.000000
     extrapolated charge   26.88115, renormalised to   28.00000

     total cpu time spent up to now is        3.9 secs

     Self-consistent Calculation

     iteration #  1     ecut=    35.00 Ry     beta= 0.70
     Davidson diagonalization with overlap
     ethr =  1.00E-06,  avg # of iterations =  6.5

     total cpu time spent up to now is        4.5 secs

     total energy              =    -630.67241753 Ry
     Harris-Foulkes estimate   =    -641.55988381 Ry
     estimated scf accuracy    <       0.15885433 Ry

     iteration #  2     ecut=    35.00 Ry     beta= 0.70
     Davidson diagonalization with overlap
     ethr =  5.67E-04,  avg # of iterations =  3.4

     total cpu time spent up to now is        5.0 secs

     total energy              =    -630.96964394 Ry
     Harris-Foulkes estimate   =    -631.14303383 Ry
     estimated scf accuracy    <       0.33000621 Ry

     iteration #  3     ecut=    35.00 Ry     beta= 0.70
     Davidson diagonalization with overlap
     ethr =  5.67E-04,  avg # of iterations =  2.0

     total cpu time spent up to now is        5.3 secs

     total energy              =    -630.98181660 Ry
     Harris-Foulkes estimate   =    -631.00217901 Ry
     estimated scf accuracy    <       0.05025301 Ry

     iteration #  4     ecut=    35.00 Ry     beta= 0.70
     Davidson diagonalization with overlap
     ethr =  1.79E-04,  avg # of iterations =  1.0

     total cpu time spent up to now is        5.5 secs

     total energy              =    -630.97823295 Ry
     Harris-Foulkes estimate   =    -630.98406219 Ry
     estimated scf accuracy    <       0.01857544 Ry

     iteration #  5     ecut=    35.00 Ry     beta= 0.70
     Davidson diagonalization with overlap
     ethr =  6.63E-05,  avg # of iterations =  1.0

     total cpu time spent up to now is        5.7 secs

     total energy              =    -630.97173746 Ry
     Harris-Foulkes estimate   =    -630.97889532 Ry
     estimated scf accuracy    <       0.00873053 Ry

     iteration #  6     ecut=    35.00 Ry     beta= 0.70
     Davidson diagonalization with overlap
     ethr =  3.12E-05,  avg # of iterations =  2.1

     total cpu time spent up to now is        6.0 secs

     total energy              =    -630.97391954 Ry
     Harris-Foulkes estimate   =    -630.97375400 Ry
     estimated scf accuracy    <       0.00009810 Ry

     iteration #  7     ecut=    35.00 Ry     beta= 0.70
     Davidson diagonalization with overlap
     ethr =  3.50E-07,  avg # of iterations =  2.8

     total cpu time spent up to now is        6.4 secs

     total energy              =    -630.97383763 Ry
     Harris-Foulkes estimate   =    -630.97396226 Ry
     estimated scf accuracy    <       0.00040684 Ry

     iteration #  8     ecut=    35.00 Ry     beta= 0.70
     Davidson diagonalization with overlap
     ethr =  3.50E-07,  avg # of iterations =  1.5

     total cpu time spent up to now is        6.6 secs

     total energy              =    -630.97363473 Ry
     Harris-Foulkes estimate   =    -630.97384608 Ry
     estimated scf accuracy    <       0.00021555 Ry

     iteration #  9     ecut=    35.00 Ry     beta= 0.70
     Davidson diagonalization with overlap
     ethr =  3.50E-07,  avg # of iterations =  2.0

     total cpu time spent up to now is        6.9 secs

     total energy              =    -630.97369693 Ry
     Harris-Foulkes estimate   =    -630.97369621 Ry
     estimated scf accuracy    <       0.00000013 Ry

     iteration # 10     ecut=    35.00 Ry     beta= 0.70
     Davidson diagonalization with overlap
     ethr =  4.70E-10,  avg # of iterations =  4.1

     total cpu time spent up to now is        7.4 secs

     total energy              =    -630.97369476 Ry
     Harris-Foulkes estimate   =    -630.97369959 Ry
     estimated scf accuracy    <       0.00000624 Ry

     iteration # 11     ecut=    35.00 Ry     beta= 0.70
     Davidson diagonalization with overlap
     ethr =  4.70E-10,  avg # of iterations =  3.4

     total cpu time spent up to now is        7.8 secs

     total energy              =    -630.97369600 Ry
     Harris-Foulkes estimate   =    -630.97369619 Ry
     estimated scf accuracy    <       0.00000036 Ry

     iteration # 12     ecut=    35.00 Ry     beta= 0.70
     Davidson diagonalization with overlap
     ethr =  4.70E-10,  avg # of iterations =  2.6

     total cpu time spent up to now is        8.1 secs

     total energy              =    -630.97369600 Ry
     Harris-Foulkes estimate   =    -630.97369603 Ry
     estimated scf accuracy    <       0.00000003 Ry

     iteration # 13     ecut=    35.00 Ry     beta= 0.70
     Davidson diagonalization with overlap
     ethr =  9.84E-11,  avg # of iterations =  2.0

     total cpu time spent up to now is        8.4 secs

     End of self-consistent calculation

          k = 0.0000 0.0000 0.0000 (  1277 PWs)   bands (ev):

   -17.9324 -17.9177 -17.9019 -17.8676 -17.8676 -17.8651 -17.8651 -17.8601
   -17.8038 -17.7864  -4.1935   1.5018   5.1583   5.1583

          k = 0.1276 0.1276 0.0000 (  1275 PWs)   bands (ev):

   -17.9326 -17.9202 -17.8980 -17.8689 -17.8663 -17.8640 -17.8612 -17.8553
   -17.8070 -17.7926  -3.9682   0.6976   5.4062   5.6244

          k = 0.2552 0.2552 0.0000 (  1269 PWs)   bands (ev):

   -17.9324 -17.9256 -17.8891 -17.8730 -17.8634 -17.8621 -17.8496 -17.8437
   -17.8160 -17.8094  -3.2999  -0.8040   6.1419   6.5609

          k =-0.3827-0.3827 0.0000 (  1286 PWs)   bands (ev):

   -17.9302 -17.9302 -17.8800 -17.8800 -17.8616 -17.8616 -17.8309 -17.8309
   -17.8294 -17.8294  -2.2180  -2.2180   7.3391   7.3391

          k = 0.1276 0.0000 0.2361 (  1270 PWs)   bands (ev):

   -17.9189 -17.9080 -17.8948 -17.8746 -17.8704 -17.8676 -17.8671 -17.8555
   -17.8060 -17.7910  -3.6919   1.4144   5.2230   6.1128

          k = 0.2552 0.1276 0.2361 (  1278 PWs)   bands (ev):

   -17.9196 -17.9102 -17.8946 -17.8743 -17.8691 -17.8657 -17.8581 -17.8476
   -17.8117 -17.8019  -3.2485   0.2819   5.2226   7.2485

          k = 0.3827 0.2552 0.2361 (  1275 PWs)   bands (ev):

   -17.9191 -17.9153 -17.8883 -17.8801 -17.8658 -17.8641 -17.8418 -17.8349
   -17.8229 -17.8193  -2.3815  -1.1483   5.9587   7.2147

          k = 0.2552 0.0000 0.4722 (  1268 PWs)   bands (ev):

   -17.9017 -17.8936 -17.8896 -17.8866 -17.8751 -17.8667 -17.8554 -17.8458
   -17.8114 -17.8017  -2.2553   1.4283   5.5709   5.5896

          k = 0.3827 0.1276 0.4722 (  1268 PWs)   bands (ev):

   -17.8992 -17.8981 -17.8964 -17.8809 -17.8755 -17.8629 -17.8464 -17.8384
   -17.8173 -17.8117  -1.6483   0.4619   4.7177   5.8904

          k = 0.5103 0.2552 0.4722 (  1276 PWs)   bands (ev):

   -17.9015 -17.9006 -17.8891 -17.8891 -17.8672 -17.8641 -17.8408 -17.8327
   -17.8232 -17.8184  -0.8288  -0.5420   4.4372   6.4298

          k = 0.1276-0.1276 0.4722 (  1270 PWs)   bands (ev):

   -17.9012 -17.8976 -17.8850 -17.8795 -17.8762 -17.8738 -17.8595 -17.8485
   -17.8093 -17.7976  -2.4635   1.7972   5.7493   6.3221

          k =-0.3827 0.0000-0.7084 (  1278 PWs)   bands (ev):

   -17.9009 -17.8968 -17.8922 -17.8834 -17.8792 -17.8544 -17.8438 -17.8397
   -17.8154 -17.8089  -0.7540   0.9617   4.0502   5.3328

          k =-0.2552 0.1276-0.7084 (  1272 PWs)   bands (ev):

   -17.9035 -17.8974 -17.8906 -17.8828 -17.8730 -17.8598 -17.8445 -17.8394
   -17.8155 -17.8081  -0.7841   1.0926   3.6718   5.2988

          k = 0.2552 0.2552 0.4722 (  1275 PWs)   bands (ev):

   -17.9014 -17.9010 -17.8932 -17.8861 -17.8677 -17.8629 -17.8492 -17.8385
   -17.8173 -17.8100  -1.8307   0.4723   5.4080   5.7545

          k = 0.3827 0.3827 0.4722 (  1260 PWs)   bands (ev):

   -17.8998 -17.8998 -17.8948 -17.8948 -17.8618 -17.8618 -17.8314 -17.8314
   -17.8254 -17.8254  -0.8195  -0.8195   5.3951   5.3951

          k = 0.0000 0.0000 0.4722 (  1261 PWs)   bands (ev):

   -17.8981 -17.8913 -17.8863 -17.8863 -17.8748 -17.8748 -17.8650 -17.8522
   -17.8066 -17.7931  -2.6781   2.4800   6.2031   6.2031

          k = 0.3827 0.2552 0.7084 (  1266 PWs)   bands (ev):

   -17.9034 -17.8979 -17.8979 -17.8909 -17.8601 -17.8531 -17.8400 -17.8320
   -17.8225 -17.8167  -0.3716   0.5260   3.5475   4.3637

          k =-0.0000-0.1276 0.7084 (  1280 PWs)   bands (ev):

   -17.8996 -17.8917 -17.8844 -17.8825 -17.8790 -17.8727 -17.8465 -17.8441
   -17.8115 -17.8025  -1.0545   1.6627   3.9546   5.8082

          k =-0.7655-0.2552-0.4722 (  1274 PWs)   bands (ev):

   -17.9006 -17.8939 -17.8871 -17.8858 -17.8755 -17.8679 -17.8462 -17.8378
   -17.8174 -17.8140  -1.1491   0.2806   4.4286   4.6180

          k =-0.6379-0.1276-0.4722 (  1283 PWs)   bands (ev):

   -17.8982 -17.8979 -17.8819 -17.8803 -17.8754 -17.8746 -17.8481 -17.8373
   -17.8177 -17.8145  -0.6737  -0.0629   4.0264   4.9609

          k =-0.0000 0.3827-0.2361 (  1280 PWs)   bands (ev):

   -17.9192 -17.9125 -17.8889 -17.8743 -17.8692 -17.8680 -17.8505 -17.8426
   -17.8155 -17.8110  -2.8250  -0.0589   4.0171   6.7803

          k =-0.6379-0.2552-0.2361 (  1280 PWs)   bands (ev):

   -17.9192 -17.9147 -17.8817 -17.8755 -17.8697 -17.8663 -17.8433 -17.8344
   -17.8241 -17.8218  -2.0201  -0.9617   4.1050   5.1817

          k = 0.0000 0.2552 0.0000 (  1273 PWs)   bands (ev):

   -17.9326 -17.9223 -17.8943 -17.8679 -17.8667 -17.8650 -17.8570 -17.8515
   -17.8097 -17.7986  -3.7466   0.3225   4.2691   7.2746

          k = 0.1276 0.3827 0.0000 (  1279 PWs)   bands (ev):

   -17.9320 -17.9265 -17.8857 -17.8710 -17.8641 -17.8635 -17.8482 -17.8416
   -17.8174 -17.8140  -3.0930  -0.7743   4.2498   6.7376

          k =-0.5103-0.2552 0.0000 (  1292 PWs)   bands (ev):

   -17.9301 -17.9301 -17.8772 -17.8772 -17.8624 -17.8624 -17.8330 -17.8330
   -17.8290 -17.8290  -2.0539  -2.0539   5.1876   5.1876

          k =-0.0000-0.0000 0.9445 (  1294 PWs)   bands (ev):

   -17.8935 -17.8914 -17.8851 -17.8851 -17.8754 -17.8754 -17.8517 -17.8391
   -17.8159 -17.8134  -0.5756   0.2348   4.2353   4.2353

          k =-0.7655-0.1276-0.2361 (  1282 PWs)   bands (ev):

   -17.9192 -17.9137 -17.8734 -17.8732 -17.8709 -17.8680 -17.8483 -17.8334
   -17.8275 -17.8223  -1.4262  -0.9163   3.2039   3.6866

          k =-0.0000 0.5103 0.0000 (  1282 PWs)   bands (ev):

   -17.9310 -17.9283 -17.8774 -17.8673 -17.8658 -17.8645 -17.8452 -17.8357
   -17.8256 -17.8215  -2.5004  -0.9433   3.1278   4.7605

          k =-0.6379-0.1276 0.0000 (  1282 PWs)   bands (ev):

   -17.9298 -17.9298 -17.8707 -17.8707 -17.8639 -17.8639 -17.8383 -17.8383
   -17.8282 -17.8282  -1.6525  -1.6525   3.4207   3.4207

          k =-0.7655-0.7655-1.4167 (  1290 PWs)   bands (ev):

   -17.9296 -17.9296 -17.8671 -17.8671 -17.8642 -17.8642 -17.8420 -17.8420
   -17.8279 -17.8279  -1.3910  -1.3910   2.6976   2.6976

     highest occupied level (ev):     7.3391

!    total energy              =    -630.97369600 Ry
     Harris-Foulkes estimate   =    -630.97369601 Ry
     estimated scf accuracy    <          8.1E-09 Ry

     total all-electron energy =     -8395.886957 Ry

     The total energy is the sum of the following terms:

     one-electron contribution =    -276.89887603 Ry
     hartree contribution      =     156.98053148 Ry
     xc contribution           =    -113.36884554 Ry
     ewald contribution        =    -200.13886727 Ry
     one-center paw contrib.   =    -197.54763864 Ry

     convergence has been achieved in  13 iterations

     Forces acting on atoms (cartesian axes, Ry/au):

     atom    1 type  1   force =     0.00000000    0.00000000    0.00000000
     atom    2 type  1   force =    -0.00000000   -0.00000000   -0.00000000

     Total force =     0.000000     Total SCF correction =     0.000000


     Computing stress (Cartesian axis) and pressure

          total   stress  (Ry/bohr**3)                   (kbar)     P=  -67.77
  -0.00032062   0.00000000  -0.00000000        -47.17      0.00     -0.00
   0.00000000  -0.00032062  -0.00000000          0.00    -47.17     -0.00
   0.00000000   0.00000000  -0.00074079          0.00      0.00   -108.97


     number of scf cycles    =   2
     number of bfgs steps    =   1

     enthalpy old            =    -630.9658985488 Ry
     enthalpy new            =    -630.9736959973 Ry

     CASE: enthalpy_new < enthalpy_old


     WARNING: bfgs curvature condition failed, Theta= 0.895
     new trust radius        =       0.1087635428 bohr
     new conv_thr            =            1.0E-10 Ry

     new unit-cell volume =    331.99242 a.u.^3 (    49.19620 Ang^3 )
     density =      4.90369 g/cm^3

CELL_PARAMETERS (angstrom)
  -2.849686358   2.849686358   1.514528455
   2.849686358  -2.849686358   1.514528455
   2.849686358   2.849686358  -1.514528455

ATOMIC_POSITIONS (crystal)
Ge       0.875000000   0.125000000   0.750000000    0   0   0
Ge       0.125000000   0.875000000   0.250000000    0   0   0



     Writing output data file germanium.save/
     NEW-OLD atomic charge density approx. for the potential

     Check: negative/imaginary core charge=   -0.000095    0.000000
     extrapolated charge   26.40554, renormalised to   28.00000

     total cpu time spent up to now is        8.7 secs

     Self-consistent Calculation

     iteration #  1     ecut=    35.00 Ry     beta= 0.70
     Davidson diagonalization with overlap
     ethr =  1.00E-06,  avg # of iterations =  6.7

     total cpu time spent up to now is        9.3 secs

     total energy              =    -630.40391266 Ry
     Harris-Foulkes estimate   =    -645.80437229 Ry
     estimated scf accuracy    <       0.30729540 Ry

     iteration #  2     ecut=    35.00 Ry     beta= 0.70
     Davidson diagonalization with overlap
     ethr =  1.10E-03,  avg # of iterations =  3.4

     total cpu time spent up to now is        9.8 secs

     total energy              =    -630.96920955 Ry
     Harris-Foulkes estimate   =    -631.30935981 Ry
     estimated scf accuracy    <       0.64880428 Ry

     iteration #  3     ecut=    35.00 Ry     beta= 0.70
     Davidson diagonalization with overlap
     ethr =  1.10E-03,  avg # of iterations =  2.0

     total cpu time spent up to now is       10.0 secs

     total energy              =    -630.99994915 Ry
     Harris-Foulkes estimate   =    -631.03623534 Ry
     estimated scf accuracy    <       0.09262412 Ry

     iteration #  4     ecut=    35.00 Ry     beta= 0.70
     Davidson diagonalization with overlap
     ethr =  3.31E-04,  avg # of iterations =  1.0

     total cpu time spent up to now is       10.2 secs

     total energy              =    -630.98785073 Ry
     Harris-Foulkes estimate   =    -631.00395963 Ry
     estimated scf accuracy    <       0.03579676 Ry

     iteration #  5     ecut=    35.00 Ry     beta= 0.70
     Davidson diagonalization with overlap
     ethr =  1.28E-04,  avg # of iterations =  1.1

     total cpu time spent up to now is       10.5 secs

     total energy              =    -630.98016958 Ry
     Harris-Foulkes estimate   =    -630.99016291 Ry
     estimated scf accuracy    <       0.01076202 Ry

     iteration #  6     ecut=    35.00 Ry     beta= 0.70
     Davidson diagonalization with overlap
     ethr =  3.84E-05,  avg # of iterations =  2.1

     total cpu time spent up to now is       10.8 secs

     total energy              =    -630.98388959 Ry
     Harris-Foulkes estimate   =    -630.98390167 Ry
     estimated scf accuracy    <       0.00006654 Ry

     iteration #  7     ecut=    35.00 Ry     beta= 0.70
     Davidson diagonalization with overlap
     ethr =  2.38E-07,  avg # of iterations =  3.6

     total cpu time spent up to now is       11.2 secs

     total energy              =    -630.98400949 Ry
     Harris-Foulkes estimate   =    -630.98400812 Ry
     estimated scf accuracy    <       0.00015717 Ry

     iteration #  8     ecut=    35.00 Ry     beta= 0.70
     Davidson diagonalization with overlap
     ethr =  2.38E-07,  avg # of iterations =  1.0

     total cpu time spent up to now is       11.4 secs

     total energy              =    -630.98382750 Ry
     Harris-Foulkes estimate   =    -630.98400983 Ry
     estimated scf accuracy    <       0.00015634 Ry

     iteration #  9     ecut=    35.00 Ry     beta= 0.70
     Davidson diagonalization with overlap
     ethr =  2.38E-07,  avg # of iterations =  2.0

     total cpu time spent up to now is       11.8 secs

     total energy              =    -630.98389264 Ry
     Harris-Foulkes estimate   =    -630.98389344 Ry
     estimated scf accuracy    <       0.00000609 Ry

     iteration # 10     ecut=    35.00 Ry     beta= 0.70
     Davidson diagonalization with overlap
     ethr =  2.17E-08,  avg # of iterations =  1.4

     total cpu time spent up to now is       12.0 secs

     total energy              =    -630.98388969 Ry
     Harris-Foulkes estimate   =    -630.98389278 Ry
     estimated scf accuracy    <       0.00000420 Ry

     iteration # 11     ecut=    35.00 Ry     beta= 0.70
     Davidson diagonalization with overlap
     ethr =  1.50E-08,  avg # of iterations =  2.0

     total cpu time spent up to now is       12.3 secs

     total energy              =    -630.98389044 Ry
     Harris-Foulkes estimate   =    -630.98389050 Ry
     estimated scf accuracy    <       0.00000017 Ry

     iteration # 12     ecut=    35.00 Ry     beta= 0.70
     Davidson diagonalization with overlap
     ethr =  6.22E-10,  avg # of iterations =  2.9

     total cpu time spent up to now is       12.6 secs

     total energy              =    -630.98389043 Ry
     Harris-Foulkes estimate   =    -630.98389046 Ry
     estimated scf accuracy    <       0.00000006 Ry

     iteration # 13     ecut=    35.00 Ry     beta= 0.70
     Davidson diagonalization with overlap
     ethr =  2.15E-10,  avg # of iterations =  2.0

     total cpu time spent up to now is       12.9 secs

     total energy              =    -630.98389044 Ry
     Harris-Foulkes estimate   =    -630.98389044 Ry
     estimated scf accuracy    <       0.00000001 Ry

     iteration # 14     ecut=    35.00 Ry     beta= 0.70
     Davidson diagonalization with overlap
     ethr =  4.13E-11,  avg # of iterations =  1.5

     total cpu time spent up to now is       13.1 secs

     total energy              =    -630.98389043 Ry
     Harris-Foulkes estimate   =    -630.98389044 Ry
     estimated scf accuracy    <       0.00000002 Ry

     iteration # 15     ecut=    35.00 Ry     beta= 0.70
     Davidson diagonalization with overlap
     ethr =  4.13E-11,  avg # of iterations =  2.1

     total cpu time spent up to now is       13.3 secs

     total energy              =    -630.98389044 Ry
     Harris-Foulkes estimate   =    -630.98389044 Ry
     estimated scf accuracy    <          1.1E-10 Ry

     iteration # 16     ecut=    35.00 Ry     beta= 0.70
     Davidson diagonalization with overlap
     ethr =  3.87E-13,  avg # of iterations =  3.4

     total cpu time spent up to now is       13.8 secs

     total energy              =    -630.98389044 Ry
     Harris-Foulkes estimate   =    -630.98389044 Ry
     estimated scf accuracy    <          1.0E-10 Ry

     iteration # 17     ecut=    35.00 Ry     beta= 0.70
     Davidson diagonalization with overlap
     ethr =  3.73E-13,  avg # of iterations =  2.0

     total cpu time spent up to now is       14.0 secs

     total energy              =    -630.98389044 Ry
     Harris-Foulkes estimate   =    -630.98389044 Ry
     estimated scf accuracy    <          1.3E-10 Ry

     iteration # 18     ecut=    35.00 Ry     beta= 0.70
     Davidson diagonalization with overlap
     ethr =  3.73E-13,  avg # of iterations =  1.0

     total cpu time spent up to now is       14.3 secs

     total energy              =    -630.98389044 Ry
     Harris-Foulkes estimate   =    -630.98389044 Ry
     estimated scf accuracy    <          1.1E-10 Ry

     iteration # 19     ecut=    35.00 Ry     beta= 0.70
     Davidson diagonalization with overlap
     ethr =  3.73E-13,  avg # of iterations =  2.2

     total cpu time spent up to now is       14.5 secs

     End of self-consistent calculation

          k = 0.0000 0.0000 0.0000 (  1277 PWs)   bands (ev):

   -17.3076 -17.2909 -17.2785 -17.2372 -17.2303 -17.2303 -17.2278 -17.2278
   -17.1716 -17.1454  -3.9140   2.1339   5.6090   5.6090

          k = 0.1292 0.1292 0.0000 (  1275 PWs)   bands (ev):

   -17.3077 -17.2937 -17.2733 -17.2334 -17.2319 -17.2272 -17.2268 -17.2244
   -17.1752 -17.1527  -3.6797   1.2425   5.8676   6.1345

          k = 0.2585 0.2585 0.0000 (  1269 PWs)   bands (ev):

   -17.3074 -17.2996 -17.2605 -17.2372 -17.2272 -17.2248 -17.2168 -17.2137
   -17.1857 -17.1717  -2.9836  -0.3651   6.6354   7.1285

          k =-0.3877-0.3877 0.0000 (  1286 PWs)   bands (ev):

   -17.3048 -17.3048 -17.2468 -17.2468 -17.2244 -17.2244 -17.2010 -17.2010
   -17.1949 -17.1949  -1.8530  -1.8530   7.8877   7.8877

          k = 0.1292 0.0000 0.2432 (  1270 PWs)   bands (ev):

   -17.2896 -17.2803 -17.2663 -17.2403 -17.2354 -17.2317 -17.2311 -17.2310
   -17.1740 -17.1507  -3.3741   2.0450   5.6930   6.6598

          k = 0.2585 0.1292 0.2432 (  1278 PWs)   bands (ev):

   -17.2904 -17.2799 -17.2671 -17.2394 -17.2339 -17.2294 -17.2249 -17.2205
   -17.1807 -17.1631  -2.9117   0.8137   5.7063   7.8736

          k = 0.3877 0.2585 0.2432 (  1275 PWs)   bands (ev):

   -17.2898 -17.2854 -17.2579 -17.2469 -17.2298 -17.2276 -17.2104 -17.2040
   -17.1932 -17.1830  -2.0050  -0.7085   6.5033   7.8325

          k = 0.2585 0.0000 0.4864 (  1268 PWs)   bands (ev):

   -17.2736 -17.2596 -17.2570 -17.2561 -17.2416 -17.2289 -17.2199 -17.2178
   -17.1802 -17.1626  -1.8120   2.1451   6.1125   6.1806

          k = 0.3877 0.1292 0.4864 (  1268 PWs)   bands (ev):

   -17.2699 -17.2661 -17.2649 -17.2479 -17.2416 -17.2232 -17.2132 -17.2087
   -17.1870 -17.1741  -1.1685   1.0896   5.2838   6.4274

          k = 0.5170 0.2585 0.4864 (  1276 PWs)   bands (ev):

   -17.2722 -17.2682 -17.2582 -17.2566 -17.2301 -17.2260 -17.2077 -17.2023
   -17.1933 -17.1818  -0.2721  -0.0194   5.0072   7.0184

          k = 0.1292-0.1292 0.4864 (  1270 PWs)   bands (ev):

   -17.2746 -17.2645 -17.2509 -17.2461 -17.2420 -17.2408 -17.2235 -17.2196
   -17.1778 -17.1579  -2.0318   2.5410   6.3907   6.9569

          k =-0.3877 0.0000-0.7295 (  1278 PWs)   bands (ev):

   -17.2733 -17.2669 -17.2637 -17.2479 -17.2470 -17.2126 -17.2098 -17.2043
   -17.1848 -17.1704  -0.1000   1.6321   4.5670   5.7905

          k =-0.2585 0.1292-0.7295 (  1272 PWs)   bands (ev):

   -17.2767 -17.2677 -17.2599 -17.2509 -17.2377 -17.2197 -17.2125 -17.2015
   -17.1849 -17.1693  -0.1391   1.8124   4.1110   5.7685

          k = 0.2585 0.2585 0.4864 (  1275 PWs)   bands (ev):

   -17.2737 -17.2691 -17.2593 -17.2549 -17.2298 -17.2261 -17.2162 -17.2088
   -17.1869 -17.1721  -1.3655   1.0880   6.0475   6.3775

          k = 0.3877 0.3877 0.4864 (  1260 PWs)   bands (ev):

   -17.2682 -17.2682 -17.2647 -17.2647 -17.2227 -17.2227 -17.2011 -17.2011
   -17.1915 -17.1915  -0.2950  -0.2950   6.0254   6.0254

          k = 0.0000 0.0000 0.4864 (  1261 PWs)   bands (ev):

   -17.2717 -17.2557 -17.2557 -17.2535 -17.2411 -17.2411 -17.2276 -17.2242
   -17.1747 -17.1528  -2.2572   3.3230   6.8025   6.8025

          k = 0.3877 0.2585 0.7295 (  1266 PWs)   bands (ev):

   -17.2767 -17.2689 -17.2672 -17.2597 -17.2199 -17.2090 -17.2072 -17.2000
   -17.1923 -17.1798   0.3022   1.2359   3.9528   4.7861

          k =-0.0000-0.1292 0.7295 (  1280 PWs)   bands (ev):

   -17.2721 -17.2631 -17.2525 -17.2506 -17.2468 -17.2332 -17.2178 -17.2016
   -17.1804 -17.1629  -0.4322   2.4297   4.3968   6.4170

          k =-0.7755-0.2585-0.4864 (  1274 PWs)   bands (ev):

   -17.2701 -17.2589 -17.2566 -17.2553 -17.2419 -17.2295 -17.2106 -17.2091
   -17.1873 -17.1765  -0.6216   0.9040   4.9532   5.0990

          k =-0.6462-0.1292-0.4864 (  1283 PWs)   bands (ev):

   -17.2686 -17.2649 -17.2486 -17.2468 -17.2412 -17.2407 -17.2109 -17.2095
   -17.1876 -17.1769  -0.0634   0.4864   4.5327   5.4665

          k = 0.0000 0.3877-0.2432 (  1280 PWs)   bands (ev):

   -17.2903 -17.2823 -17.2601 -17.2399 -17.2336 -17.2317 -17.2163 -17.2152
   -17.1852 -17.1735  -2.4674   0.4696   4.4232   7.3969

          k =-0.6462-0.2585-0.2432 (  1280 PWs)   bands (ev):

   -17.2903 -17.2852 -17.2498 -17.2411 -17.2345 -17.2300 -17.2092 -17.2061
   -17.1932 -17.1877  -1.6189  -0.4959   4.5369   5.6852

          k = 0.0000 0.2585 0.0000 (  1273 PWs)   bands (ev):

   -17.3077 -17.2959 -17.2683 -17.2322 -17.2298 -17.2278 -17.2258 -17.2202
   -17.1784 -17.1594  -3.4487   0.8499   4.6708   7.8677

          k = 0.1292 0.3877 0.0000 (  1279 PWs)   bands (ev):

   -17.3070 -17.3006 -17.2561 -17.2349 -17.2274 -17.2263 -17.2150 -17.2123
   -17.1874 -17.1769  -2.7661  -0.3220   4.6667   7.2807

          k =-0.5170-0.2585 0.0000 (  1292 PWs)   bands (ev):

   -17.3048 -17.3048 -17.2434 -17.2434 -17.2251 -17.2251 -17.2007 -17.2007
   -17.1975 -17.1975  -1.6763  -1.6763   5.6599   5.6599

          k =-0.0000-0.0000 0.9727 (  1294 PWs)   bands (ev):

   -17.2598 -17.2570 -17.2543 -17.2543 -17.2419 -17.2419 -17.2129 -17.2120
   -17.1856 -17.1758   0.0667   0.8113   4.6966   4.6966

          k =-0.7755-0.1292-0.2432 (  1282 PWs)   bands (ev):

   -17.2906 -17.2843 -17.2387 -17.2384 -17.2362 -17.2317 -17.2148 -17.2058
   -17.1931 -17.1927  -0.9737  -0.4335   3.5747   4.0995

          k =-0.0000 0.5170 0.0000 (  1282 PWs)   bands (ev):

   -17.3062 -17.3028 -17.2451 -17.2302 -17.2293 -17.2274 -17.2101 -17.2086
   -17.1923 -17.1903  -2.1412  -0.4804   3.4795   5.2161

          k =-0.6462-0.1292 0.0000 (  1282 PWs)   bands (ev):

   -17.3048 -17.3048 -17.2351 -17.2351 -17.2266 -17.2266 -17.2044 -17.2044
   -17.2000 -17.2000  -1.2386  -1.2386   3.8033   3.8033

          k =-0.7755-0.7755-1.4591 (  1290 PWs)   bands (ev):

   -17.3048 -17.3048 -17.2297 -17.2297 -17.2268 -17.2268 -17.2098 -17.2098
   -17.1996 -17.1996  -0.9465  -0.9465   3.0320   3.0320

     highest occupied level (ev):     7.8877

!    total energy              =    -630.98389044 Ry
     Harris-Foulkes estimate   =    -630.98389044 Ry
     estimated scf accuracy    <          5.1E-12 Ry

     total all-electron energy =     -8395.897152 Ry

     The total energy is the sum of the following terms:

     one-electron contribution =    -270.71089803 Ry
     hartree contribution      =     154.53480284 Ry
     xc contribution           =    -113.41385474 Ry
     ewald contribution        =    -203.84606296 Ry
     one-center paw contrib.   =    -197.54787755 Ry

     convergence has been achieved in  19 iterations

     Forces acting on atoms (cartesian axes, Ry/au):

     atom    1 type  1   force =    -0.00000000   -0.00000000   -0.00000000
     atom    2 type  1   force =     0.00000000    0.00000000    0.00000000

     Total force =     0.000000     Total SCF correction =     0.000000


     Computing stress (Cartesian axis) and pressure

          total   stress  (Ry/bohr**3)                   (kbar)     P=  -61.98
  -0.00025378  -0.00000000  -0.00000000        -37.33     -0.00     -0.00
  -0.00000000  -0.00025378  -0.00000000         -0.00    -37.33     -0.00
   0.00000000   0.00000000  -0.00075635          0.00      0.00   -111.26


     number of scf cycles    =   3
     number of bfgs steps    =   2

     enthalpy old            =    -630.9736959973 Ry
     enthalpy new            =    -630.9838904354 Ry

     CASE: enthalpy_new < enthalpy_old

     new trust radius        =       0.1634339915 bohr
     new conv_thr            =            1.0E-10 Ry

     new unit-cell volume =    306.40491 a.u.^3 (    45.40452 Ang^3 )
     density =      5.31320 g/cm^3

CELL_PARAMETERS (angstrom)
  -2.801203905   2.801203905   1.446604064
   2.801203905  -2.801203905   1.446604064
   2.801203905   2.801203905  -1.446604064

ATOMIC_POSITIONS (crystal)
Ge       0.875000000   0.125000000   0.750000000    0   0   0
Ge       0.125000000   0.875000000   0.250000000    0   0   0



     Writing output data file germanium.save/
     NEW-OLD atomic charge density approx. for the potential

     Check: negative/imaginary core charge=   -0.000062    0.000000
     extrapolated charge   25.66188, renormalised to   28.00000

     total cpu time spent up to now is       14.7 secs

     Self-consistent Calculation

     iteration #  1     ecut=    35.00 Ry     beta= 0.70
     Davidson diagonalization with overlap
     ethr =  1.00E-06,  avg # of iterations =  7.2

     total cpu time spent up to now is       15.4 secs

     total energy              =    -629.83502470 Ry
     Harris-Foulkes estimate   =    -652.17156641 Ry
     estimated scf accuracy    <       0.62461871 Ry

     iteration #  2     ecut=    35.00 Ry     beta= 0.70
     Davidson diagonalization with overlap
     ethr =  2.23E-03,  avg # of iterations =  3.3

     total cpu time spent up to now is       15.9 secs

     total energy              =    -630.94217947 Ry
     Harris-Foulkes estimate   =    -631.64495136 Ry
     estimated scf accuracy    <       1.34403554 Ry

     iteration #  3     ecut=    35.00 Ry     beta= 0.70
     Davidson diagonalization with overlap
     ethr =  2.23E-03,  avg # of iterations =  2.0

     total cpu time spent up to now is       16.2 secs

     total energy              =    -631.02526810 Ry
     Harris-Foulkes estimate   =    -631.09206794 Ry
     estimated scf accuracy    <       0.17052228 Ry

     iteration #  4     ecut=    35.00 Ry     beta= 0.70
     Davidson diagonalization with overlap
     ethr =  6.09E-04,  avg # of iterations =  1.1

     total cpu time spent up to now is       16.4 secs

     total energy              =    -630.97594463 Ry
     Harris-Foulkes estimate   =    -631.03320444 Ry
     estimated scf accuracy    <       0.06538110 Ry

     iteration #  5     ecut=    35.00 Ry     beta= 0.70
     Davidson diagonalization with overlap
     ethr =  2.34E-04,  avg # of iterations =  2.2

     total cpu time spent up to now is       16.7 secs

     total energy              =    -630.99617278 Ry
     Harris-Foulkes estimate   =    -630.99598735 Ry
     estimated scf accuracy    <       0.00001347 Ry

     iteration #  6     ecut=    35.00 Ry     beta= 0.70
     Davidson diagonalization with overlap
     ethr =  4.81E-08,  avg # of iterations =  4.2

     total cpu time spent up to now is       17.2 secs

     total energy              =    -630.99613596 Ry
     Harris-Foulkes estimate   =    -630.99646314 Ry
     estimated scf accuracy    <       0.00083213 Ry

     iteration #  7     ecut=    35.00 Ry     beta= 0.70
     Davidson diagonalization with overlap
     ethr =  4.81E-08,  avg # of iterations =  3.2

     total cpu time spent up to now is       17.6 secs

     total energy              =    -630.99595633 Ry
     Harris-Foulkes estimate   =    -630.99617584 Ry
     estimated scf accuracy    <       0.00025399 Ry

     iteration #  8     ecut=    35.00 Ry     beta= 0.70
     Davidson diagonalization with overlap
     ethr =  4.81E-08,  avg # of iterations =  3.4

     total cpu time spent up to now is       18.1 secs

     total energy              =    -630.99601905 Ry
     Harris-Foulkes estimate   =    -630.99601980 Ry
     estimated scf accuracy    <       0.00000102 Ry

     iteration #  9     ecut=    35.00 Ry     beta= 0.70
     Davidson diagonalization with overlap
     ethr =  3.63E-09,  avg # of iterations =  2.6

     total cpu time spent up to now is       18.4 secs

     total energy              =    -630.99601903 Ry
     Harris-Foulkes estimate   =    -630.99602001 Ry
     estimated scf accuracy    <       0.00000112 Ry

     iteration # 10     ecut=    35.00 Ry     beta= 0.70
     Davidson diagonalization with overlap
     ethr =  3.63E-09,  avg # of iterations =  2.0

     total cpu time spent up to now is       18.7 secs

     total energy              =    -630.99601937 Ry
     Harris-Foulkes estimate   =    -630.99601936 Ry
     estimated scf accuracy    <          4.4E-09 Ry

     iteration # 11     ecut=    35.00 Ry     beta= 0.70
     Davidson diagonalization with overlap
     ethr =  1.58E-11,  avg # of iterations =  2.9

     total cpu time spent up to now is       19.1 secs

     total energy              =    -630.99601936 Ry
     Harris-Foulkes estimate   =    -630.99601937 Ry
     estimated scf accuracy    <          9.3E-09 Ry

     iteration # 12     ecut=    35.00 Ry     beta= 0.70
     Davidson diagonalization with overlap
     ethr =  1.58E-11,  avg # of iterations =  2.1

     total cpu time spent up to now is       19.4 secs

     total energy              =    -630.99601936 Ry
     Harris-Foulkes estimate   =    -630.99601936 Ry
     estimated scf accuracy    <          2.4E-10 Ry

     iteration # 13     ecut=    35.00 Ry     beta= 0.70
     Davidson diagonalization with overlap
     ethr =  8.52E-13,  avg # of iterations =  2.5

     total cpu time spent up to now is       19.7 secs

     End of self-consistent calculation

          k = 0.0000 0.0000 0.0000 (  1277 PWs)   bands (ev):

   -16.3351 -16.3258 -16.3153 -16.2815 -16.2346 -16.2346 -16.2321 -16.2321
   -16.2004 -16.1640  -3.4834   3.0539   6.2787   6.2787

          k = 0.1315 0.1315 0.0000 (  1275 PWs)   bands (ev):

   -16.3353 -16.3184 -16.3179 -16.2755 -16.2375 -16.2325 -16.2312 -16.2299
   -16.2048 -16.1721  -3.2369   2.0327   6.5521   6.8950

          k = 0.2630 0.2630 0.0000 (  1269 PWs)   bands (ev):

   -16.3344 -16.3250 -16.2963 -16.2599 -16.2478 -16.2304 -16.2283 -16.2228
   -16.2164 -16.1916  -2.5033   0.2802   7.3646   7.9664

          k =-0.3944-0.3944 0.0000 (  1286 PWs)   bands (ev):

   -16.3311 -16.3311 -16.2691 -16.2691 -16.2405 -16.2405 -16.2247 -16.2247
   -16.2106 -16.2106  -1.3073  -1.3073   8.6922   8.6922

          k = 0.1315 0.0000 0.2546 (  1270 PWs)   bands (ev):

   -16.3206 -16.3079 -16.2850 -16.2751 -16.2491 -16.2455 -16.2384 -16.2380
   -16.2032 -16.1698  -2.8830   2.9637   6.4000   7.4786

          k = 0.2630 0.1315 0.2546 (  1278 PWs)   bands (ev):

   -16.3107 -16.3061 -16.2933 -16.2653 -16.2492 -16.2426 -16.2352 -16.2347
   -16.2112 -16.1831  -2.3948   1.5938   6.4342   8.7973

          k = 0.3944 0.2630 0.2546 (  1275 PWs)   bands (ev):

   -16.3084 -16.3027 -16.2857 -16.2641 -16.2483 -16.2378 -16.2330 -16.2258
   -16.2211 -16.2026  -1.4348  -0.0531   7.3129   8.7499

          k = 0.2630 0.0000 0.5092 (  1268 PWs)   bands (ev):

   -16.3084 -16.2764 -16.2742 -16.2715 -16.2574 -16.2544 -16.2337 -16.2168
   -16.2104 -16.1819  -1.1222   3.2256   6.9498   7.1539

          k = 0.3944 0.1315 0.5092 (  1268 PWs)   bands (ev):

   -16.3016 -16.2834 -16.2800 -16.2628 -16.2579 -16.2463 -16.2210 -16.2191
   -16.2181 -16.1940  -0.4291   2.0392   6.2314   7.2627

          k = 0.5259 0.2630 0.5092 (  1276 PWs)   bands (ev):

   -16.2997 -16.2864 -16.2760 -16.2707 -16.2452 -16.2347 -16.2316 -16.2261
   -16.2137 -16.1998   0.5786   0.7755   5.9734   7.9293

          k = 0.1315-0.1315 0.5092 (  1270 PWs)   bands (ev):

   -16.3120 -16.2797 -16.2694 -16.2607 -16.2604 -16.2584 -16.2442 -16.2165
   -16.2075 -16.1764  -1.3578   3.6533   7.4237   8.0079

          k =-0.3944 0.0000-0.7638 (  1278 PWs)   bands (ev):

   -16.3049 -16.2889 -16.2876 -16.2652 -16.2634 -16.2486 -16.2159 -16.2041
   -16.2010 -16.1820   0.9534   2.6456   5.4444   6.5108

          k =-0.2630 0.1315-0.7638 (  1272 PWs)   bands (ev):

   -16.3091 -16.2896 -16.2801 -16.2677 -16.2601 -16.2473 -16.2191 -16.2153
   -16.1903 -16.1829   0.8960   2.9241   4.8408   6.5166

          k = 0.2630 0.2630 0.5092 (  1275 PWs)   bands (ev):

   -16.3059 -16.2847 -16.2742 -16.2711 -16.2537 -16.2398 -16.2307 -16.2181
   -16.2147 -16.1919  -0.6460   2.0149   7.1027   7.4182

          k = 0.3944 0.3944 0.5092 (  1260 PWs)   bands (ev):

   -16.2934 -16.2934 -16.2793 -16.2793 -16.2353 -16.2353 -16.2213 -16.2213
   -16.2126 -16.2126   0.5056   0.5056   7.0755   7.0755

          k = 0.0000 0.0000 0.5092 (  1261 PWs)   bands (ev):

   -16.3131 -16.2742 -16.2742 -16.2684 -16.2545 -16.2538 -16.2538 -16.2188
   -16.2037 -16.1710  -1.5979   4.5970   7.7281   7.7281

          k = 0.3944 0.2630 0.7638 (  1266 PWs)   bands (ev):

   -16.3078 -16.2941 -16.2861 -16.2772 -16.2446 -16.2303 -16.2251 -16.2057
   -16.1999 -16.1901   1.3843   2.3582   4.6142   5.4609

          k =-0.0000-0.1315 0.7638 (  1280 PWs)   bands (ev):

   -16.3050 -16.2863 -16.2783 -16.2675 -16.2629 -16.2555 -16.2321 -16.2107
   -16.1868 -16.1773   0.5655   3.6096   5.1244   7.5468

          k =-0.7889-0.2630-0.5092 (  1274 PWs)   bands (ev):

   -16.2971 -16.2795 -16.2748 -16.2688 -16.2551 -16.2463 -16.2342 -16.2192
   -16.2131 -16.1957   0.1838   1.8590   5.8389   5.8496

          k =-0.6574-0.1315-0.5092 (  1283 PWs)   bands (ev):

   -16.2973 -16.2811 -16.2628 -16.2619 -16.2574 -16.2512 -16.2453 -16.2197
   -16.2119 -16.1952   0.8759   1.3164   5.3872   6.2505

          k = 0.0000 0.3944-0.2546 (  1280 PWs)   bands (ev):

   -16.3113 -16.2998 -16.2925 -16.2593 -16.2457 -16.2435 -16.2389 -16.2274
   -16.2165 -16.1952  -1.9226   1.2498   5.0424   8.3065

          k =-0.6574-0.2630-0.2546 (  1280 PWs)   bands (ev):

   -16.3106 -16.3053 -16.2733 -16.2548 -16.2485 -16.2398 -16.2369 -16.2265
   -16.2237 -16.2095  -1.0153   0.1968   5.1943   6.4418

          k = 0.0000 0.2630 0.0000 (  1273 PWs)   bands (ev):

   -16.3355 -16.3210 -16.3101 -16.2703 -16.2361 -16.2340 -16.2325 -16.2264
   -16.2085 -16.1797  -2.9932   1.6192   5.2739   8.7397

          k = 0.1315 0.3944 0.0000 (  1279 PWs)   bands (ev):

   -16.3348 -16.3267 -16.2898 -16.2564 -16.2448 -16.2320 -16.2299 -16.2219
   -16.2185 -16.1977  -2.2717   0.3429   5.2936   8.0798

          k =-0.5259-0.2630 0.0000 (  1292 PWs)   bands (ev):

   -16.3319 -16.3319 -16.2644 -16.2644 -16.2395 -16.2395 -16.2262 -16.2262
   -16.2138 -16.2138  -1.1134  -1.1134   6.3632   6.3632

          k =-0.0000-0.0000 1.0184 (  1294 PWs)   bands (ev):

   -16.2910 -16.2728 -16.2728 -16.2641 -16.2548 -16.2548 -16.2488 -16.2174
   -16.2122 -16.1949   1.0641   1.6795   5.4196   5.4196

          k =-0.7889-0.1315-0.2546 (  1282 PWs)   bands (ev):

   -16.3118 -16.3068 -16.2564 -16.2488 -16.2472 -16.2411 -16.2385 -16.2330
   -16.2267 -16.2177  -0.2999   0.2876   4.1456   4.7312

          k =-0.0000 0.5259 0.0000 (  1282 PWs)   bands (ev):

   -16.3349 -16.3302 -16.2731 -16.2475 -16.2405 -16.2333 -16.2331 -16.2245
   -16.2219 -16.2124  -1.6027   0.2029   4.0144   5.8966

          k =-0.6574-0.1315 0.0000 (  1282 PWs)   bands (ev):

   -16.3332 -16.3332 -16.2527 -16.2527 -16.2370 -16.2370 -16.2295 -16.2295
   -16.2229 -16.2229  -0.6246  -0.6246   4.3835   4.3835

          k =-0.7889-0.7889-1.5276 (  1290 PWs)   bands (ev):

   -16.3338 -16.3338 -16.2413 -16.2413 -16.2349 -16.2349 -16.2338 -16.2338
   -16.2313 -16.2313  -0.2875  -0.2875   3.5433   3.5433

     highest occupied level (ev):     8.7973

!    total energy              =    -630.99601936 Ry
     Harris-Foulkes estimate   =    -630.99601936 Ry
     estimated scf accuracy    <          6.4E-12 Ry

     total all-electron energy =     -8395.909281 Ry

     The total energy is the sum of the following terms:

     one-electron contribution =    -261.74769282 Ry
     hartree contribution      =     151.06083238 Ry
     xc contribution           =    -113.48767693 Ry
     ewald contribution        =    -209.27231476 Ry
     one-center paw contrib.   =    -197.54916723 Ry

     convergence has been achieved in  13 iterations

     Forces acting on atoms (cartesian axes, Ry/au):

     atom    1 type  1   force =     0.00000000    0.00000000    0.00000000
     atom    2 type  1   force =     0.00000000    0.00000000    0.00000000

     Total force =     0.000000     Total SCF correction =     0.000000


     Computing stress (Cartesian axis) and pressure

          total   stress  (Ry/bohr**3)                   (kbar)     P=  -44.13
  -0.00004060  -0.00000000  -0.00000000         -5.97     -0.00     -0.00
  -0.00000000  -0.00004060  -0.00000000         -0.00     -5.97     -0.00
   0.00000000  -0.00000000  -0.00081882          0.00     -0.00   -120.45


     number of scf cycles    =   4
     number of bfgs steps    =   3

     enthalpy old            =    -630.9838904354 Ry
     enthalpy new            =    -630.9960193626 Ry

     CASE: enthalpy_new < enthalpy_old

     new trust radius        =       0.2465728100 bohr
     new conv_thr            =            1.0E-10 Ry

     new unit-cell volume =    273.60021 a.u.^3 (    40.54337 Ang^3 )
     density =      5.95025 g/cm^3

CELL_PARAMETERS (angstrom)
  -2.745455363   2.745455363   1.344717477
   2.745455363  -2.745455363   1.344717477
   2.745455363   2.745455363  -1.344717477

ATOMIC_POSITIONS (crystal)
Ge       0.875000000   0.125000000   0.750000000    0   0   0
Ge       0.125000000   0.875000000   0.250000000    0   0   0



     Writing output data file germanium.save/
     NEW-OLD atomic charge density approx. for the potential

     Check: negative/imaginary core charge=   -0.000038    0.000000
     extrapolated charge   24.64298, renormalised to   28.00000

     total cpu time spent up to now is       19.9 secs

     Self-consistent Calculation

     iteration #  1     ecut=    35.00 Ry     beta= 0.70
     Davidson diagonalization with overlap
     ethr =  1.00E-06,  avg # of iterations =  7.6

     total cpu time spent up to now is       20.7 secs

     total energy              =    -628.80456108 Ry
     Harris-Foulkes estimate   =    -660.31948017 Ry
     estimated scf accuracy    <       1.21001517 Ry

     iteration #  2     ecut=    35.00 Ry     beta= 0.70
     Davidson diagonalization with overlap
     ethr =  4.32E-03,  avg # of iterations =  3.4

     total cpu time spent up to now is       21.1 secs

     total energy              =    -630.83776683 Ry
     Harris-Foulkes estimate   =    -632.23637518 Ry
     estimated scf accuracy    <       2.69919277 Ry

     iteration #  3     ecut=    35.00 Ry     beta= 0.70
     Davidson diagonalization with overlap
     ethr =  4.32E-03,  avg # of iterations =  2.0

     total cpu time spent up to now is       21.4 secs

     total energy              =    -631.06263214 Ry
     Harris-Foulkes estimate   =    -631.16978975 Ry
     estimated scf accuracy    <       0.28578743 Ry

     iteration #  4     ecut=    35.00 Ry     beta= 0.70
     Davidson diagonalization with overlap
     ethr =  1.02E-03,  avg # of iterations =  1.2

     total cpu time spent up to now is       21.6 secs

     total energy              =    -630.99643438 Ry
     Harris-Foulkes estimate   =    -631.07538244 Ry
     estimated scf accuracy    <       0.11667306 Ry

     iteration #  5     ecut=    35.00 Ry     beta= 0.70
     Davidson diagonalization with overlap
     ethr =  4.17E-04,  avg # of iterations =  2.0

     total cpu time spent up to now is       21.9 secs

     total energy              =    -631.00557432 Ry
     Harris-Foulkes estimate   =    -631.01481772 Ry
     estimated scf accuracy    <       0.01017174 Ry

     iteration #  6     ecut=    35.00 Ry     beta= 0.70
     Davidson diagonalization with overlap
     ethr =  3.63E-05,  avg # of iterations =  2.3

     total cpu time spent up to now is       22.2 secs

     total energy              =    -631.00827955 Ry
     Harris-Foulkes estimate   =    -631.00828799 Ry
     estimated scf accuracy    <       0.00012551 Ry

     iteration #  7     ecut=    35.00 Ry     beta= 0.70
     Davidson diagonalization with overlap
     ethr =  4.48E-07,  avg # of iterations =  2.1

     total cpu time spent up to now is       22.5 secs

     total energy              =    -631.00815607 Ry
     Harris-Foulkes estimate   =    -631.00829120 Ry
     estimated scf accuracy    <       0.00010482 Ry

     iteration #  8     ecut=    35.00 Ry     beta= 0.70
     Davidson diagonalization with overlap
     ethr =  3.74E-07,  avg # of iterations =  2.0

     total cpu time spent up to now is       22.8 secs

     total energy              =    -631.00817414 Ry
     Harris-Foulkes estimate   =    -631.00817857 Ry
     estimated scf accuracy    <       0.00000592 Ry

     iteration #  9     ecut=    35.00 Ry     beta= 0.70
     Davidson diagonalization with overlap
     ethr =  2.11E-08,  avg # of iterations =  2.6

     total cpu time spent up to now is       23.1 secs

     total energy              =    -631.00817556 Ry
     Harris-Foulkes estimate   =    -631.00817591 Ry
     estimated scf accuracy    <       0.00000107 Ry

     iteration # 10     ecut=    35.00 Ry     beta= 0.70
     Davidson diagonalization with overlap
     ethr =  3.81E-09,  avg # of iterations =  2.1

     total cpu time spent up to now is       23.4 secs

     total energy              =    -631.00817553 Ry
     Harris-Foulkes estimate   =    -631.00817573 Ry
     estimated scf accuracy    <       0.00000047 Ry

     iteration # 11     ecut=    35.00 Ry     beta= 0.70
     Davidson diagonalization with overlap
     ethr =  1.69E-09,  avg # of iterations =  2.2

     total cpu time spent up to now is       23.7 secs

     total energy              =    -631.00817554 Ry
     Harris-Foulkes estimate   =    -631.00817556 Ry
     estimated scf accuracy    <       0.00000005 Ry

     iteration # 12     ecut=    35.00 Ry     beta= 0.70
     Davidson diagonalization with overlap
     ethr =  1.93E-10,  avg # of iterations =  2.4

     total cpu time spent up to now is       24.0 secs

     total energy              =    -631.00817554 Ry
     Harris-Foulkes estimate   =    -631.00817554 Ry
     estimated scf accuracy    <          8.6E-09 Ry

     iteration # 13     ecut=    35.00 Ry     beta= 0.70
     Davidson diagonalization with overlap
     ethr =  3.06E-11,  avg # of iterations =  2.1

     total cpu time spent up to now is       24.2 secs

     total energy              =    -631.00817554 Ry
     Harris-Foulkes estimate   =    -631.00817554 Ry
     estimated scf accuracy    <          2.5E-09 Ry

     iteration # 14     ecut=    35.00 Ry     beta= 0.70
     Davidson diagonalization with overlap
     ethr =  9.03E-12,  avg # of iterations =  2.5

     total cpu time spent up to now is       24.6 secs

     End of self-consistent calculation

          k = 0.0000 0.0000 0.0000 (  1277 PWs)   bands (ev):

   -14.9099 -14.8869 -14.8845 -14.8318 -14.7331 -14.7331 -14.7308 -14.7308
   -14.7260 -14.6777  -2.8462   4.2514   7.2481   7.2481

          k = 0.1341 0.1341 0.0000 (  1275 PWs)   bands (ev):

   -14.9095 -14.8898 -14.8732 -14.8238 -14.7381 -14.7344 -14.7316 -14.7291
   -14.7275 -14.6868  -2.5853   3.0776   7.5403   7.9748

          k = 0.2683 0.2683 0.0000 (  1269 PWs)   bands (ev):

   -14.9074 -14.8961 -14.8419 -14.8028 -14.7593 -14.7507 -14.7285 -14.7264
   -14.7240 -14.7043  -1.8080   1.1638   8.4086   9.1320

          k =-0.4024-0.4024-0.0000 (  1286 PWs)   bands (ev):

   -14.9029 -14.9029 -14.7992 -14.7992 -14.7757 -14.7757 -14.7262 -14.7262
   -14.7165 -14.7165  -0.5363  -0.5363   9.8286   9.8286

          k = 0.1341 0.0000 0.2739 (  1270 PWs)   bands (ev):

   -14.8758 -14.8578 -14.8288 -14.8220 -14.7608 -14.7572 -14.7461 -14.7441
   -14.7287 -14.6841  -2.1466   4.1811   7.4534   8.6620

          k = 0.2683 0.1341 0.2739 (  1278 PWs)   bands (ev):

   -14.8616 -14.8536 -14.8369 -14.8087 -14.7616 -14.7555 -14.7470 -14.7434
   -14.7379 -14.6985  -1.6284   2.6577   7.5111  10.0953

          k = 0.4024 0.2683 0.2739 (  1275 PWs)   bands (ev):

   -14.8561 -14.8481 -14.8230 -14.7879 -14.7860 -14.7607 -14.7469 -14.7429
   -14.7338 -14.7171  -0.6066   0.8721   8.4810  10.0491

          k = 0.2683 0.0000 0.5478 (  1268 PWs)   bands (ev):

   -14.8554 -14.8138 -14.8037 -14.7977 -14.7947 -14.7781 -14.7398 -14.7368
   -14.7109 -14.6949  -0.0600   4.7588   8.2710   8.7982

          k = 0.4024 0.1341 0.5478 (  1268 PWs)   bands (ev):

   -14.8456 -14.8162 -14.8115 -14.7919 -14.7853 -14.7766 -14.7475 -14.7248
   -14.7222 -14.7033   0.6914   3.4136   7.8722   8.5788

          k = 0.5366 0.2683 0.5478 (  1276 PWs)   bands (ev):

   -14.8415 -14.8214 -14.8054 -14.7967 -14.7791 -14.7583 -14.7565 -14.7461
   -14.7100 -14.7098   1.8420   1.9527   7.6819   9.3200

          k = 0.1341-0.1341 0.5478 (  1270 PWs)   bands (ev):

   -14.8605 -14.8126 -14.8083 -14.7945 -14.7865 -14.7831 -14.7500 -14.7331
   -14.7090 -14.6887  -0.3141   5.2086   9.0831   9.7364

          k =-0.4024-0.0000-0.8217 (  1278 PWs)   bands (ev):

   -14.8520 -14.8344 -14.8297 -14.7961 -14.7953 -14.7838 -14.7434 -14.7191
   -14.6787 -14.6537   2.7103   4.1252   6.9485   7.5624

          k =-0.2683 0.1341-0.8217 (  1272 PWs)   bands (ev):

   -14.8578 -14.8336 -14.8189 -14.8016 -14.7944 -14.7812 -14.7438 -14.7253
   -14.6744 -14.6545   2.6035   4.6028   6.0639   7.6591

          k = 0.2683 0.2683 0.5478 (  1275 PWs)   bands (ev):

   -14.8511 -14.8171 -14.8049 -14.7960 -14.7913 -14.7677 -14.7479 -14.7316
   -14.7100 -14.7080   0.4516   3.3544   8.8789   9.1907

          k = 0.4024 0.4024 0.5478 (  1260 PWs)   bands (ev):

   -14.8331 -14.8331 -14.8069 -14.8069 -14.7683 -14.7683 -14.7366 -14.7366
   -14.7171 -14.7171   1.6983   1.6983   8.8668   8.8668

          k = 0.0000 0.0000 0.5478 (  1261 PWs)   bands (ev):

   -14.8627 -14.8107 -14.8091 -14.8091 -14.7770 -14.7770 -14.7600 -14.7285
   -14.7099 -14.6820  -0.5717   6.3548   9.1776   9.1776

          k = 0.4024 0.2683 0.8217 (  1266 PWs)   bands (ev):

   -14.8564 -14.8378 -14.8263 -14.8132 -14.7783 -14.7578 -14.7547 -14.7252
   -14.6743 -14.6611   3.1822   4.1521   5.6781   6.4798

          k = 0.0000-0.1341 0.8217 (  1280 PWs)   bands (ev):

   -14.8517 -14.8327 -14.8192 -14.8011 -14.7955 -14.7924 -14.7369 -14.7359
   -14.6701 -14.6512   2.2040   5.3682   6.3034   8.8495

          k =-0.8049-0.2683-0.5478 (  1274 PWs)   bands (ev):

   -14.8388 -14.8121 -14.8108 -14.7918 -14.7815 -14.7787 -14.7489 -14.7483
   -14.7106 -14.7033   1.3810   3.2586   7.0556   7.3996

          k =-0.6707-0.1341-0.5478 (  1283 PWs)   bands (ev):

   -14.8389 -14.8142 -14.7941 -14.7888 -14.7842 -14.7775 -14.7680 -14.7492
   -14.7057 -14.7045   2.2714   2.5230   6.9006   7.4840

          k = 0.0000 0.4024-0.2739 (  1280 PWs)   bands (ev):

   -14.8630 -14.8445 -14.8341 -14.7989 -14.7606 -14.7591 -14.7502 -14.7409
   -14.7391 -14.7131  -1.1239   2.3169   5.9926   9.5849

          k =-0.6707-0.2683-0.2739 (  1280 PWs)   bands (ev):

   -14.8612 -14.8516 -14.8074 -14.7830 -14.7769 -14.7603 -14.7534 -14.7459
   -14.7361 -14.7263  -0.1494   1.1643   6.1879   7.5500

          k = 0.0000 0.2683 0.0000 (  1273 PWs)   bands (ev):

   -14.9096 -14.8923 -14.8624 -14.8167 -14.7399 -14.7390 -14.7325 -14.7288
   -14.7265 -14.6950  -2.3268   2.6433   6.1692   9.9460

          k = 0.1341 0.4024 0.0000 (  1279 PWs)   bands (ev):

   -14.9080 -14.8979 -14.8338 -14.7981 -14.7587 -14.7529 -14.7298 -14.7283
   -14.7236 -14.7101  -1.5599   1.2490   6.2175   9.2050

          k =-0.5366-0.2683 0.0000 (  1292 PWs)   bands (ev):

   -14.9040 -14.9040 -14.7951 -14.7951 -14.7744 -14.7744 -14.7274 -14.7274
   -14.7195 -14.7195  -0.3229  -0.3229   7.3756   7.3756

          k = 0.0000 0.0000 1.0956 (  1294 PWs)   bands (ev):

   -14.8313 -14.8077 -14.8077 -14.7845 -14.7815 -14.7785 -14.7785 -14.7466
   -14.7059 -14.7032   2.5594   2.9224   6.5902   6.5902

          k =-0.8049-0.1341-0.2739 (  1282 PWs)   bands (ev):

   -14.8639 -14.8549 -14.7889 -14.7787 -14.7658 -14.7606 -14.7580 -14.7492
   -14.7444 -14.7368   0.6446   1.2906   5.0377   5.6946

          k = 0.0000 0.5366 0.0000 (  1282 PWs)   bands (ev):

   -14.9083 -14.9021 -14.8127 -14.7861 -14.7641 -14.7597 -14.7320 -14.7296
   -14.7247 -14.7210  -0.8403   1.1319   4.8303   6.8824

          k =-0.6707-0.1341-0.0000 (  1282 PWs)   bands (ev):

   -14.9060 -14.9060 -14.7857 -14.7857 -14.7717 -14.7717 -14.7298 -14.7298
   -14.7266 -14.7266   0.2240   0.2240   5.2527   5.2527

          k =-0.8049-0.8049-1.6433 (  1290 PWs)   bands (ev):

   -14.9070 -14.9070 -14.7802 -14.7802 -14.7703 -14.7703 -14.7321 -14.7321
   -14.7301 -14.7301   0.6144   0.6144   4.3308   4.3308

     highest occupied level (ev):    10.0953

!    total energy              =    -631.00817554 Ry
     Harris-Foulkes estimate   =    -631.00817554 Ry
     estimated scf accuracy    <          2.1E-11 Ry

     total all-electron energy =     -8395.921437 Ry

     The total energy is the sum of the following terms:

     one-electron contribution =    -249.26003825 Ry
     hartree contribution      =     146.33688978 Ry
     xc contribution           =    -113.60801447 Ry
     ewald contribution        =    -216.92588071 Ry
     one-center paw contrib.   =    -197.55113188 Ry

     convergence has been achieved in  14 iterations

     Forces acting on atoms (cartesian axes, Ry/au):

     atom    1 type  1   force =    -0.00000000   -0.00000000   -0.00000000
     atom    2 type  1   force =     0.00000000    0.00000000    0.00000000

     Total force =     0.000000     Total SCF correction =     0.000000


     Computing stress (Cartesian axis) and pressure

          total   stress  (Ry/bohr**3)                   (kbar)     P=   -0.39
   0.00012420   0.00000000  -0.00000000         18.27      0.00     -0.00
   0.00000000   0.00012420  -0.00000000          0.00     18.27     -0.00
  -0.00000000  -0.00000000  -0.00025637         -0.00     -0.00    -37.71


     number of scf cycles    =   5
     number of bfgs steps    =   4

     enthalpy old            =    -630.9960193626 Ry
     enthalpy new            =    -631.0081755407 Ry

     CASE: enthalpy_new < enthalpy_old

     new trust radius        =       0.0739355036 bohr
     new conv_thr            =            1.0E-10 Ry

     new unit-cell volume =    265.80821 a.u.^3 (    39.38871 Ang^3 )
     density =      6.12468 g/cm^3

CELL_PARAMETERS (angstrom)
  -2.736834431   2.736834431   1.314663920
   2.736834431  -2.736834431   1.314663920
   2.736834431   2.736834431  -1.314663920

ATOMIC_POSITIONS (crystal)
Ge       0.875000000   0.125000000   0.750000000    0   0   0
Ge       0.125000000   0.875000000   0.250000000    0   0   0



     Writing output data file germanium.save/
     NEW-OLD atomic charge density approx. for the potential

     Check: negative/imaginary core charge=   -0.000037    0.000000
     extrapolated charge   27.17924, renormalised to   28.00000

     total cpu time spent up to now is       24.8 secs

     Self-consistent Calculation

     iteration #  1     ecut=    35.00 Ry     beta= 0.70
     Davidson diagonalization with overlap
     ethr =  1.00E-06,  avg # of iterations =  5.8

     total cpu time spent up to now is       25.4 secs

     total energy              =    -630.85824306 Ry
     Harris-Foulkes estimate   =    -638.07161124 Ry
     estimated scf accuracy    <       0.07876777 Ry

     iteration #  2     ecut=    35.00 Ry     beta= 0.70
     Davidson diagonalization with overlap
     ethr =  2.81E-04,  avg # of iterations =  3.3

     total cpu time spent up to now is       25.8 secs

     total energy              =    -631.00813460 Ry
     Harris-Foulkes estimate   =    -631.09478822 Ry
     estimated scf accuracy    <       0.16369538 Ry

     iteration #  3     ecut=    35.00 Ry     beta= 0.70
     Davidson diagonalization with overlap
     ethr =  2.81E-04,  avg # of iterations =  2.0

     total cpu time spent up to now is       26.1 secs

     total energy              =    -631.01301177 Ry
     Harris-Foulkes estimate   =    -631.02365846 Ry
     estimated scf accuracy    <       0.02631742 Ry

     iteration #  4     ecut=    35.00 Ry     beta= 0.70
     Davidson diagonalization with overlap
     ethr =  9.40E-05,  avg # of iterations =  1.1

     total cpu time spent up to now is       26.3 secs

     total energy              =    -631.01235743 Ry
     Harris-Foulkes estimate   =    -631.01425215 Ry
     estimated scf accuracy    <       0.00982589 Ry

     iteration #  5     ecut=    35.00 Ry     beta= 0.70
     Davidson diagonalization with overlap
     ethr =  3.51E-05,  avg # of iterations =  1.0

     total cpu time spent up to now is       26.5 secs

     total energy              =    -631.00988852 Ry
     Harris-Foulkes estimate   =    -631.01253620 Ry
     estimated scf accuracy    <       0.00636361 Ry

     iteration #  6     ecut=    35.00 Ry     beta= 0.70
     Davidson diagonalization with overlap
     ethr =  2.27E-05,  avg # of iterations =  1.1

     total cpu time spent up to now is       26.7 secs

     total energy              =    -631.00775333 Ry
     Harris-Foulkes estimate   =    -631.01013702 Ry
     estimated scf accuracy    <       0.00260338 Ry

     iteration #  7     ecut=    35.00 Ry     beta= 0.70
     Davidson diagonalization with overlap
     ethr =  9.30E-06,  avg # of iterations =  2.3

     total cpu time spent up to now is       27.0 secs

     total energy              =    -631.00860170 Ry
     Harris-Foulkes estimate   =    -631.00860081 Ry
     estimated scf accuracy    <       0.00000722 Ry

     iteration #  8     ecut=    35.00 Ry     beta= 0.70
     Davidson diagonalization with overlap
     ethr =  2.58E-08,  avg # of iterations =  3.4

     total cpu time spent up to now is       27.4 secs

     total energy              =    -631.00860150 Ry
     Harris-Foulkes estimate   =    -631.00860567 Ry
     estimated scf accuracy    <       0.00000902 Ry

     iteration #  9     ecut=    35.00 Ry     beta= 0.70
     Davidson diagonalization with overlap
     ethr =  2.58E-08,  avg # of iterations =  2.0

     total cpu time spent up to now is       27.7 secs

     total energy              =    -631.00860040 Ry
     Harris-Foulkes estimate   =    -631.00860219 Ry
     estimated scf accuracy    <       0.00000219 Ry

     iteration # 10     ecut=    35.00 Ry     beta= 0.70
     Davidson diagonalization with overlap
     ethr =  7.84E-09,  avg # of iterations =  2.8

     total cpu time spent up to now is       28.0 secs

     total energy              =    -631.00860144 Ry
     Harris-Foulkes estimate   =    -631.00860253 Ry
     estimated scf accuracy    <       0.00000275 Ry

     iteration # 11     ecut=    35.00 Ry     beta= 0.70
     Davidson diagonalization with overlap
     ethr =  7.84E-09,  avg # of iterations =  1.0

     total cpu time spent up to now is       28.2 secs

     total energy              =    -631.00860132 Ry
     Harris-Foulkes estimate   =    -631.00860157 Ry
     estimated scf accuracy    <       0.00000097 Ry

     iteration # 12     ecut=    35.00 Ry     beta= 0.70
     Davidson diagonalization with overlap
     ethr =  3.47E-09,  avg # of iterations =  1.0

     total cpu time spent up to now is       28.4 secs

     total energy              =    -631.00860102 Ry
     Harris-Foulkes estimate   =    -631.00860135 Ry
     estimated scf accuracy    <       0.00000046 Ry

     iteration # 13     ecut=    35.00 Ry     beta= 0.70
     Davidson diagonalization with overlap
     ethr =  1.66E-09,  avg # of iterations =  2.0

     total cpu time spent up to now is       28.7 secs

     total energy              =    -631.00860113 Ry
     Harris-Foulkes estimate   =    -631.00860113 Ry
     estimated scf accuracy    <          2.0E-09 Ry

     iteration # 14     ecut=    35.00 Ry     beta= 0.70
     Davidson diagonalization with overlap
     ethr =  7.02E-12,  avg # of iterations =  3.3

     total cpu time spent up to now is       29.1 secs

     total energy              =    -631.00860113 Ry
     Harris-Foulkes estimate   =    -631.00860113 Ry
     estimated scf accuracy    <          6.7E-10 Ry

     iteration # 15     ecut=    35.00 Ry     beta= 0.70
     Davidson diagonalization with overlap
     ethr =  2.39E-12,  avg # of iterations =  2.6

     total cpu time spent up to now is       29.5 secs

     total energy              =    -631.00860113 Ry
     Harris-Foulkes estimate   =    -631.00860113 Ry
     estimated scf accuracy    <          6.4E-10 Ry

     iteration # 16     ecut=    35.00 Ry     beta= 0.70
     Davidson diagonalization with overlap
     ethr =  2.28E-12,  avg # of iterations =  1.1

     total cpu time spent up to now is       29.7 secs

     total energy              =    -631.00860113 Ry
     Harris-Foulkes estimate   =    -631.00860113 Ry
     estimated scf accuracy    <          1.3E-10 Ry

     iteration # 17     ecut=    35.00 Ry     beta= 0.70
     Davidson diagonalization with overlap
     ethr =  4.82E-13,  avg # of iterations =  2.1

     total cpu time spent up to now is       30.0 secs

     End of self-consistent calculation

          k = 0.0000 0.0000 0.0000 (  1277 PWs)   bands (ev):

   -14.5414 -14.5183 -14.4972 -14.4423 -14.3304 -14.3290 -14.3290 -14.3268
   -14.3268 -14.2796  -2.6822   4.4904   7.4811   7.4811

          k = 0.1346 0.1346 0.0000 (  1275 PWs)   bands (ev):

   -14.5408 -14.5210 -14.4851 -14.4338 -14.3377 -14.3348 -14.3277 -14.3253
   -14.3251 -14.2887  -2.4191   3.2988   7.7768   8.2218

          k = 0.2691 0.2691 0.0000 (  1269 PWs)   bands (ev):

   -14.5383 -14.5269 -14.4514 -14.4114 -14.3600 -14.3560 -14.3250 -14.3233
   -14.3208 -14.3043  -1.6350   1.3643   8.6556   9.3922

          k =-0.4037-0.4037-0.0000 (  1286 PWs)   bands (ev):

   -14.5335 -14.5335 -14.4049 -14.4049 -14.3827 -14.3827 -14.3230 -14.3230
   -14.3144 -14.3144  -0.3519  -0.3519  10.0925  10.0925

          k = 0.1346-0.0000 0.2801 (  1270 PWs)   bands (ev):

   -14.4884 -14.4779 -14.4472 -14.4312 -14.3622 -14.3588 -14.3465 -14.3440
   -14.3328 -14.2860  -1.9520   4.4402   7.7209   8.9452

          k = 0.2691 0.1346 0.2801 (  1278 PWs)   bands (ev):

   -14.4794 -14.4680 -14.4534 -14.4171 -14.3630 -14.3576 -14.3489 -14.3452
   -14.3412 -14.3006  -1.4291   2.8991   7.7813  10.3951

          k = 0.4037 0.2691 0.2801 (  1275 PWs)   bands (ev):

   -14.4752 -14.4668 -14.4306 -14.3932 -14.3923 -14.3661 -14.3491 -14.3444
   -14.3355 -14.3190  -0.3978   1.0951   8.7656  10.3573

          k = 0.2691-0.0000 0.5603 (  1268 PWs)   bands (ev):

   -14.4651 -14.4247 -14.4127 -14.4058 -14.4023 -14.3862 -14.3408 -14.3405
   -14.3087 -14.2954   0.2355   5.1270   8.6407   9.3140

          k = 0.4037 0.1346 0.5603 (  1268 PWs)   bands (ev):

   -14.4555 -14.4256 -14.4218 -14.3984 -14.3935 -14.3835 -14.3520 -14.3275
   -14.3217 -14.3017   0.9965   3.7590   8.3765   8.9638

          k = 0.5383 0.2691 0.5603 (  1276 PWs)   bands (ev):

   -14.4517 -14.4311 -14.4148 -14.4051 -14.3849 -14.3634 -14.3630 -14.3496
   -14.3104 -14.3071   2.1747   2.2623   8.2333   9.6945

[...]
     Harris-Foulkes estimate   =    -631.00939541 Ry
     estimated scf accuracy    <          7.7E-11 Ry

     total all-electron energy =     -8395.922657 Ry

     The total energy is the sum of the following terms:

     one-electron contribution =    -251.17486599 Ry
     hartree contribution      =     147.14538028 Ry
     xc contribution           =    -113.60405460 Ry
     ewald contribution        =    -215.82474850 Ry
     one-center paw contrib.   =    -197.55110660 Ry

     convergence has been achieved in  13 iterations

     Forces acting on atoms (cartesian axes, Ry/au):

     atom    1 type  1   force =     0.00000000    0.00000000    0.00000000
     atom    2 type  1   force =     0.00000000    0.00000000    0.00000000

     Total force =     0.000000     Total SCF correction =     0.000000


     Computing stress (Cartesian axis) and pressure

          total   stress  (Ry/bohr**3)                   (kbar)     P=    0.05
   0.00000038   0.00000000   0.00000000          0.06      0.00      0.00
   0.00000000   0.00000038   0.00000000          0.00      0.06      0.00
   0.00000000   0.00000000   0.00000026          0.00      0.00      0.04


     bfgs converged in  11 scf cycles and  10 bfgs steps
     (criteria: energy <  1.0E-04 Ry, force <  1.0E-03Ry/Bohr, cell <  5.0E-01kbar)

     End of BFGS Geometry Optimization

     Final enthalpy =    -631.0093954139 Ry
Begin final coordinates
     new unit-cell volume =    276.22092 a.u.^3 (    40.93172 Ang^3 )
     density =      5.89379 g/cm^3

CELL_PARAMETERS (angstrom)
  -2.785951108   2.785951108   1.318417583
   2.785951108  -2.785951108   1.318417583
   2.785951108   2.785951108  -1.318417583

ATOMIC_POSITIONS (crystal)
Ge       0.875000000   0.125000000   0.750000000    0   0   0
Ge       0.125000000   0.875000000   0.250000000    0   0   0
End final coordinates



     Writing output data file germanium.save/

     A final scf calculation at the relaxed structure.
     The G-vectors are recalculated for the final unit cell
     Results may differ from those at the preceding step.
 
     Parallelization info
     --------------------
     sticks:   dense  smooth     PW     G-vecs:    dense   smooth      PW
     Min          34      34     13                  645      645     160
     Max          35      35     14                  649      649     163
     Sum         413     413    165                 7757     7757    1933
 


     bravais-lattice index     =            0
     lattice parameter (alat)  =       8.3519  a.u.
     unit-cell volume          =     276.2209 (a.u.)^3
     number of atoms/cell      =            2
     number of atomic types    =            1
     number of electrons       =        28.00
     number of Kohn-Sham states=           14
     kinetic-energy cutoff     =      35.0000  Ry
     charge density cutoff     =     140.0000  Ry
     convergence threshold     =      1.0E-10
     mixing beta               =       0.7000
     number of iterations used =            8  plain     mixing
     Exchange-correlation      = SLA PW PBX PBC ( 1  4  3  4 0 0)

     celldm(1)=   8.351872  celldm(2)=   0.000000  celldm(3)=   0.000000
     celldm(4)=   0.000000  celldm(5)=   0.000000  celldm(6)=   0.000000

     crystal axes: (cart. coord. in units of alat)
               a(1) = (  -0.630360   0.630360   0.298310 )  
               a(2) = (   0.630360  -0.630360   0.298310 )  
               a(3) = (   0.630360   0.630360  -0.298310 )  

     reciprocal axes: (cart. coord. in units 2 pi/alat)
               b(1) = (  0.000000  0.793198  1.676108 )  
               b(2) = (  0.793198  0.000000  1.676108 )  
               b(3) = (  0.793198  0.793198  0.000000 )  


     PseudoPot. # 1 for Ge read from file:
     ../../PP/Ge.pbe-dn-kjpaw_psl.0.2.2.UPF
     MD5 check sum: acf6dd3aa1b4e03129ff8bf786ac0282
     Pseudo is Projector augmented-wave + core cor, Zval = 14.0
     Generated using "atomic" code by A. Dal Corso v.5.0.2 svn rev. 9415
     Shape of augmentation charge: PSQ
     Using radial grid of 1207 points,  6 beta functions with: 
                l(1) =   0
                l(2) =   0
                l(3) =   1
                l(4) =   1
                l(5) =   2
                l(6) =   2
     Q(r) pseudized with 0 coefficients 


     atomic species   valence    mass     pseudopotential
        Ge            14.00    72.64000     Ge( 1.00)

     16 Sym. Ops., with inversion, found (12 have fractional translation)



   Cartesian axes

     site n.     atom                  positions (alat units)
         1           Ge  tau(   1) = (  -0.0000000   0.9455397   0.0745775  )
         2           Ge  tau(   2) = (   0.6303598  -0.3151799   0.2237326  )

     number of k points=    30
                       cart. coord. in units 2pi/alat
        k(    1) = (   0.0000000   0.0000000   0.0000000), wk =   0.0092593
        k(    2) = (   0.1321996   0.1321996   0.0000000), wk =   0.0370370
        k(    3) = (   0.2643993   0.2643993   0.0000000), wk =   0.0370370
        k(    4) = (  -0.3965989  -0.3965989  -0.0000000), wk =   0.0185185
        k(    5) = (   0.1321996   0.0000000   0.2793513), wk =   0.0740741
        k(    6) = (   0.2643993   0.1321996   0.2793513), wk =   0.1481481
        k(    7) = (   0.3965989   0.2643993   0.2793513), wk =   0.1481481
        k(    8) = (   0.2643993   0.0000000   0.5587027), wk =   0.0740741
        k(    9) = (   0.3965989   0.1321996   0.5587027), wk =   0.1481481
        k(   10) = (   0.5287985   0.2643993   0.5587027), wk =   0.0740741
        k(   11) = (   0.1321996  -0.1321996   0.5587027), wk =   0.0740741
        k(   12) = (  -0.3965989  -0.0000000  -0.8380540), wk =   0.0370370
        k(   13) = (  -0.2643993   0.1321996  -0.8380540), wk =   0.1481481
        k(   14) = (   0.2643993   0.2643993   0.5587027), wk =   0.0740741
        k(   15) = (   0.3965989   0.3965989   0.5587027), wk =   0.0370370
        k(   16) = (   0.0000000   0.0000000   0.5587027), wk =   0.0185185
        k(   17) = (   0.3965989   0.2643993   0.8380540), wk =   0.0740741
        k(   18) = (   0.0000000  -0.1321996   0.8380540), wk =   0.0740741
        k(   19) = (  -0.7931978  -0.2643993  -0.5587027), wk =   0.0740741
        k(   20) = (  -0.6609982  -0.1321996  -0.5587027), wk =   0.0740741
        k(   21) = (   0.0000000   0.3965989  -0.2793513), wk =   0.0740741
        k(   22) = (  -0.6609982  -0.2643993  -0.2793513), wk =   0.1481481
        k(   23) = (   0.0000000   0.2643993   0.0000000), wk =   0.0370370
        k(   24) = (   0.1321996   0.3965989   0.0000000), wk =   0.0740741
        k(   25) = (  -0.5287985  -0.2643993  -0.0000000), wk =   0.0370370
        k(   26) = (   0.0000000   0.0000000   1.1174053), wk =   0.0185185
        k(   27) = (  -0.7931978  -0.1321996  -0.2793513), wk =   0.0740741
        k(   28) = (   0.0000000   0.5287985   0.0000000), wk =   0.0370370
        k(   29) = (  -0.6609982  -0.1321996  -0.0000000), wk =   0.0370370
        k(   30) = (  -0.7931978  -0.7931978  -1.6761080), wk =   0.0092593

     Dense  grid:     7757 G-vectors     FFT dimensions: (  30,  30,  30)

     Estimated max dynamical RAM per process >       5.54 MB

     Estimated total dynamical RAM >      66.50 MB

     Check: negative/imaginary core charge=   -0.000163    0.000000

     Initial potential from superposition of free atoms

     starting charge   27.99847, renormalised to   28.00000
     Starting wfcs are   18 randomized atomic wfcs
     Checking if some PAW data can be deallocated... 

     total cpu time spent up to now is       52.9 secs

     Self-consistent Calculation

     iteration #  1     ecut=    35.00 Ry     beta= 0.70
     Davidson diagonalization with overlap
     ethr =  1.00E-06,  avg # of iterations =  7.0

     total cpu time spent up to now is       53.5 secs

     total energy              =    -631.00996691 Ry
     Harris-Foulkes estimate   =    -631.01181205 Ry
     estimated scf accuracy    <       0.00690927 Ry

     iteration #  2     ecut=    35.00 Ry     beta= 0.70
     Davidson diagonalization with overlap
     ethr =  2.47E-05,  avg # of iterations =  2.0

     total cpu time spent up to now is       53.8 secs

     total energy              =    -631.01078633 Ry
     Harris-Foulkes estimate   =    -631.01098887 Ry
     estimated scf accuracy    <       0.00068046 Ry

     iteration #  3     ecut=    35.00 Ry     beta= 0.70
     Davidson diagonalization with overlap
     ethr =  2.43E-06,  avg # of iterations =  2.5

     total cpu time spent up to now is       54.1 secs

     total energy              =    -631.01092704 Ry
     Harris-Foulkes estimate   =    -631.01094903 Ry
     estimated scf accuracy    <       0.00008404 Ry

     iteration #  4     ecut=    35.00 Ry     beta= 0.70
     Davidson diagonalization with overlap
     ethr =  3.00E-07,  avg # of iterations =  2.1

     total cpu time spent up to now is       54.4 secs

     total energy              =    -631.01094103 Ry
     Harris-Foulkes estimate   =    -631.01094076 Ry
     estimated scf accuracy    <       0.00000139 Ry

     iteration #  5     ecut=    35.00 Ry     beta= 0.70
     Davidson diagonalization with overlap
     ethr =  4.95E-09,  avg # of iterations =  3.2

     total cpu time spent up to now is       54.7 secs

     total energy              =    -631.01094135 Ry
     Harris-Foulkes estimate   =    -631.01094135 Ry
     estimated scf accuracy    <       0.00000003 Ry

     iteration #  6     ecut=    35.00 Ry     beta= 0.70
     Davidson diagonalization with overlap
     ethr =  1.03E-10,  avg # of iterations =  3.6

     total cpu time spent up to now is       55.1 secs

     total energy              =    -631.01094136 Ry
     Harris-Foulkes estimate   =    -631.01094136 Ry
     estimated scf accuracy    <          6.3E-09 Ry

     iteration #  7     ecut=    35.00 Ry     beta= 0.70
     Davidson diagonalization with overlap
     ethr =  2.23E-11,  avg # of iterations =  2.7

     total cpu time spent up to now is       55.4 secs

     End of self-consistent calculation

          k = 0.0000 0.0000 0.0000 (   969 PWs)   bands (ev):

   -15.0705 -15.0502 -15.0182 -14.9614 -14.8657 -14.8574 -14.8574 -14.8559
   -14.8559 -14.8303  -2.9285   3.7091   7.0070   7.0070

          k = 0.1322 0.1322 0.0000 (   972 PWs)   bands (ev):

   -15.0698 -15.0518 -15.0080 -14.9540 -14.8718 -14.8654 -14.8566 -14.8546
   -14.8545 -14.8354  -2.6780   2.6736   7.2901   7.6415

          k = 0.2644 0.2644 0.0000 (   964 PWs)   bands (ev):

   -15.0669 -15.0568 -14.9778 -14.9349 -14.8936 -14.8872 -14.8546 -14.8533
   -14.8511 -14.8419  -1.9326   0.8949   8.1314   8.7428

          k =-0.3966-0.3966-0.0000 (   978 PWs)   bands (ev):

   -15.0627 -15.0627 -14.9363 -14.9363 -14.9104 -14.9104 -14.8532 -14.8532
   -14.8471 -14.8471  -0.7174  -0.7174   9.5078   9.5078

          k = 0.1322 0.0000 0.2794 (   968 PWs)   bands (ev):

   -15.0116 -15.0074 -14.9800 -14.9514 -14.8886 -14.8862 -14.8760 -14.8735
   -14.8674 -14.8349  -2.2094   3.7414   7.2705   8.3732

          k = 0.2644 0.1322 0.2794 (   972 PWs)   bands (ev):

   -15.0081 -14.9955 -14.9825 -14.9393 -14.8926 -14.8857 -14.8787 -14.8773
   -14.8721 -14.8447  -1.7123   2.3493   7.3124   9.7377

          k = 0.3966 0.2644 0.2794 (   970 PWs)   bands (ev):

   -15.0044 -14.9969 -14.9581 -14.9220 -14.9192 -14.8962 -14.8788 -14.8745
   -14.8683 -14.8566  -0.7344   0.6726   8.2391   9.7612

          k = 0.2644 0.0000 0.5587 (   970 PWs)   bands (ev):

   -14.9880 -14.9475 -14.9388 -14.9320 -14.9268 -14.9148 -14.8762 -14.8742
   -14.8486 -14.8400  -0.0573   4.5088   8.2297   8.8940

          k = 0.3966 0.1322 0.5587 (   966 PWs)   bands (ev):

   -14.9784 -14.9498 -14.9453 -14.9253 -14.9209 -14.9124 -14.8840 -14.8680
   -14.8593 -14.8426   0.6632   3.2502   7.9943   8.5362

          k = 0.5288 0.2644 0.5587 (   960 PWs)   bands (ev):

   -14.9742 -14.9547 -14.9399 -14.9308 -14.9126 -14.8969 -14.8944 -14.8851
   -14.8511 -14.8459   1.7715   1.8579   7.8756   9.2090

          k = 0.1322-0.1322 0.5587 (   971 PWs)   bands (ev):

   -14.9927 -14.9472 -14.9401 -14.9293 -14.9225 -14.9189 -14.8843 -14.8707
   -14.8447 -14.8368  -0.3014   4.9373   9.0961   9.6643

          k =-0.3966-0.0000-0.8381 (   966 PWs)   bands (ev):

   -14.9860 -14.9730 -14.9667 -14.9363 -14.9335 -14.9150 -14.8796 -14.8655
   -14.8050 -14.7801   2.8803   4.1670   6.7987   7.3076

          k =-0.2644 0.1322-0.8381 (   970 PWs)   bands (ev):

   -14.9918 -14.9716 -14.9573 -14.9415 -14.9320 -14.9146 -14.8800 -14.8688
   -14.8031 -14.7804   2.7697   4.6425   5.9669   7.4398

          k = 0.2644 0.2644 0.5587 (   966 PWs)   bands (ev):

   -14.9831 -14.9508 -14.9392 -14.9300 -14.9238 -14.9070 -14.8838 -14.8689
   -14.8531 -14.8464   0.4343   3.2056   8.9932   9.2994

          k = 0.3966 0.3966 0.5587 (   958 PWs)   bands (ev):

   -14.9660 -14.9660 -14.9401 -14.9401 -14.9025 -14.9025 -14.8804 -14.8804
   -14.8534 -14.8534   1.6289   1.6289   9.0053   9.0053

          k = 0.0000 0.0000 0.5587 (   965 PWs)   bands (ev):

   -14.9953 -14.9447 -14.9447 -14.9395 -14.9139 -14.9139 -14.8928 -14.8661
   -14.8449 -14.8308  -0.5491   5.9490   9.1042   9.1042

          k = 0.3966 0.2644 0.8381 (   962 PWs)   bands (ev):

   -14.9905 -14.9737 -14.9639 -14.9517 -14.9123 -14.8991 -14.8898 -14.8715
   -14.8001 -14.7869   3.3377   4.2488   5.5987   6.3260

          k = 0.0000-0.1322 0.8381 (   968 PWs)   bands (ev):

   -14.9859 -14.9719 -14.9574 -14.9409 -14.9356 -14.9227 -14.8745 -14.8735
   -14.8021 -14.7766   2.3782   5.3471   6.1447   8.5688

          k =-0.7932-0.2644-0.5587 (   956 PWs)   bands (ev):

   -14.9721 -14.9462 -14.9453 -14.9267 -14.9158 -14.9134 -14.8890 -14.8847
   -14.8512 -14.8408   1.3198   3.0815   7.0580   7.5688

          k =-0.6610-0.1322-0.5587 (   953 PWs)   bands (ev):

   -14.9718 -14.9484 -14.9306 -14.9252 -14.9190 -14.9116 -14.9044 -14.8854
   -14.8480 -14.8401   2.1798   2.3709   7.0495   7.4344

          k = 0.0000 0.3966-0.2794 (   968 PWs)   bands (ev):

   -15.0104 -14.9935 -14.9713 -14.9304 -14.8966 -14.8882 -14.8847 -14.8723
   -14.8720 -14.8562  -1.2307   2.0008   5.8863   9.3100

          k =-0.6610-0.2644-0.2794 (   960 PWs)   bands (ev):

   -15.0095 -14.9987 -14.9460 -14.9161 -14.9142 -14.8962 -14.8836 -14.8764
   -14.8696 -14.8638  -0.3051   0.9283   6.0489   7.3418

          k = 0.0000 0.2644 0.0000 (   974 PWs)   bands (ev):

   -15.0693 -15.0538 -14.9977 -14.9475 -14.8766 -14.8711 -14.8571 -14.8552
   -14.8530 -14.8395  -2.4303   2.2532   5.9968   9.5208

          k = 0.1322 0.3966 0.0000 (   974 PWs)   bands (ev):

   -15.0674 -15.0581 -14.9710 -14.9307 -14.8959 -14.8897 -14.8556 -14.8541
   -14.8512 -14.8452  -1.6969   0.9587   6.0218   8.8799

          k =-0.5288-0.2644-0.0000 (   962 PWs)   bands (ev):

   -15.0634 -15.0634 -14.9334 -14.9334 -14.9092 -14.9092 -14.8536 -14.8536
   -14.8489 -14.8489  -0.5199  -0.5199   7.1183   7.1183

          k = 0.0000 0.0000 1.1174 (   961 PWs)   bands (ev):

   -14.9657 -14.9433 -14.9433 -14.9169 -14.9156 -14.9151 -14.9151 -14.8832
   -14.8484 -14.8386   2.4499   2.7175   6.6091   6.6091

          k =-0.7932-0.1322-0.2794 (   960 PWs)   bands (ev):

   -15.0127 -15.0013 -14.9323 -14.9122 -14.9061 -14.8966 -14.8870 -14.8824
   -14.8737 -14.8704   0.4302   1.0181   4.9719   5.5755

          k = 0.0000 0.5288 0.0000 (   960 PWs)   bands (ev):

   -15.0670 -15.0614 -14.9521 -14.9198 -14.9068 -14.8961 -14.8565 -14.8547
   -14.8522 -14.8503  -1.0164   0.8168   4.7215   6.6447

          k =-0.6610-0.1322-0.0000 (   962 PWs)   bands (ev):

   -15.0650 -15.0650 -14.9280 -14.9280 -14.9069 -14.9069 -14.8552 -14.8552
   -14.8533 -14.8533  -0.0225  -0.0225   5.0988   5.0988

          k =-0.7932-0.7932-1.6761 (   968 PWs)   bands (ev):

   -15.0659 -15.0659 -14.9252 -14.9252 -14.9061 -14.9061 -14.8568 -14.8568
   -14.8550 -14.8550   0.3200   0.3200   4.2430   4.2430

     highest occupied level (ev):     9.7612

!    total energy              =    -631.01094136 Ry
     Harris-Foulkes estimate   =    -631.01094136 Ry
     estimated scf accuracy    <          2.6E-11 Ry

     total all-electron energy =     -8395.924203 Ry

     The total energy is the sum of the following terms:

     one-electron contribution =    -251.18257815 Ry
     hartree contribution      =     147.15662137 Ry
     xc contribution           =    -113.60834645 Ry
     ewald contribution        =    -215.82474852 Ry
     one-center paw contrib.   =    -197.55188960 Ry

     convergence has been achieved in   7 iterations

     Forces acting on atoms (cartesian axes, Ry/au):

     atom    1 type  1   force =    -0.00000000   -0.00000000   -0.00000000
     atom    2 type  1   force =     0.00000000    0.00000000    0.00000000

     Total force =     0.000000     Total SCF correction =     0.000000


     Computing stress (Cartesian axis) and pressure

          total   stress  (Ry/bohr**3)                   (kbar)     P=    7.74
   0.00004010   0.00000000   0.00000000          5.90      0.00      0.00
   0.00000000   0.00004010   0.00000000          0.00      5.90      0.00
   0.00000000   0.00000000   0.00007760          0.00      0.00     11.41


     Writing output data file germanium.save/
 
     init_run     :      0.39s CPU      0.43s WALL (       2 calls)
     electrons    :     49.11s CPU     51.65s WALL (      12 calls)
     update_pot   :      0.70s CPU      0.75s WALL (      10 calls)
     forces       :      0.33s CPU      0.34s WALL (      12 calls)
     stress       :      0.59s CPU      0.60s WALL (      12 calls)

     Called by init_run:
     wfcinit      :      0.17s CPU      0.18s WALL (       2 calls)
     potinit      :      0.08s CPU      0.11s WALL (       2 calls)
     hinit0       :      0.12s CPU      0.12s WALL (       2 calls)

     Called by electrons:
     c_bands      :     40.07s CPU     41.16s WALL (     162 calls)
     sum_band     :      3.44s CPU      3.62s WALL (     162 calls)
     v_of_rho     :      0.20s CPU      0.19s WALL (     172 calls)
     newd         :      0.38s CPU      0.42s WALL (     172 calls)
     PAW_pot      :      5.64s CPU      7.04s WALL (     182 calls)
     mix_rho      :      0.08s CPU      0.07s WALL (     162 calls)

     Called by c_bands:
     init_us_2    :      0.26s CPU      0.25s WALL (   10800 calls)
     cegterg      :     38.78s CPU     39.98s WALL (    4860 calls)

     Called by sum_band:
     sum_band:bec :      0.06s CPU      0.06s WALL (    5160 calls)
     addusdens    :      0.34s CPU      0.39s WALL (     162 calls)

     Called by *egterg:
     h_psi        :     15.34s CPU     16.03s WALL (   16741 calls)
     s_psi        :      0.70s CPU      0.66s WALL (   16741 calls)
     g_psi        :      0.04s CPU      0.04s WALL (   11821 calls)
     cdiaghg      :     18.55s CPU     18.89s WALL (   16321 calls)

     Called by h_psi:
     h_psi:pot    :     15.32s CPU     15.99s WALL (   16741 calls)
     h_psi:calbec :      1.17s CPU      1.25s WALL (   16741 calls)
     vloc_psi     :     13.49s CPU     14.01s WALL (   16741 calls)
     add_vuspsi   :      0.63s CPU      0.69s WALL (   16741 calls)

     General routines
     calbec       :      1.72s CPU      1.82s WALL (   23701 calls)
     fft          :      0.15s CPU      0.14s WALL (    2216 calls)
     ffts         :      0.01s CPU      0.01s WALL (     162 calls)
     fftw         :     15.02s CPU     15.68s WALL (  453776 calls)
 
     Parallel routines
     fft_scatt_xy :      0.95s CPU      0.99s WALL (  456154 calls)
     fft_scatt_yz :      8.54s CPU      9.06s WALL (  456154 calls)
 
     PWSCF        :    52.38s CPU        55.52s WALL

 
   This run was terminated on:  10:37:53  12May2022            

=------------------------------------------------------------------------------=
   JOB DONE.
=------------------------------------------------------------------------------=
