
     Program PWSCF v.6.3MaX starts on 10May2022 at 15:56: 3 

     This program is part of the open-source Quantum ESPRESSO suite
     for quantum simulation of materials; please cite
         "P. Giannozzi et al., J. Phys.:Condens. Matter 21 395502 (2009);
         "P. Giannozzi et al., J. Phys.:Condens. Matter 29 465901 (2017);
          URL http://www.quantum-espresso.org", 
     in publications or presentations arising from this work. More details at
     http://www.quantum-espresso.org/quote

     Parallel version (MPI), running on     1 processors

     MPI processes distributed on     1 nodes
     Waiting for input...
     Reading input from standard input

     Current dimensions of program PWSCF are:
     Max number of different atomic species (ntypx) = 10
     Max number of k-points (npk) =  40000
     Max angular momentum in pseudopotentials (lmaxx) =  3
               file Ge.pbe-dn-kjpaw_psl.0.2.2.UPF: wavefunction(s)  4P 3D renormalized

     Subspace diagonalization in iterative solution of the eigenvalue problem:
     a serial algorithm will be used

 
     G-vector sticks info
     --------------------
     sticks:   dense  smooth     PW     G-vecs:    dense   smooth      PW
     Sum         625     625    199                10177    10177    1807
 


     bravais-lattice index     =            2
     lattice parameter (alat)  =      10.2000  a.u.
     unit-cell volume          =     265.3020 (a.u.)^3
     number of atoms/cell      =            2
     number of atomic types    =            1
     number of electrons       =        28.00
     number of Kohn-Sham states=           14
     kinetic-energy cutoff     =      43.4210  Ry
     charge density cutoff     =     173.6840  Ry
     convergence threshold     =      1.0E-08
     mixing beta               =       0.7000
     number of iterations used =            8  plain     mixing
     Exchange-correlation      = SLA PW PBX PBC ( 1  4  3  4 0 0)

     celldm(1)=  10.200000  celldm(2)=   0.000000  celldm(3)=   0.000000
     celldm(4)=   0.000000  celldm(5)=   0.000000  celldm(6)=   0.000000

     crystal axes: (cart. coord. in units of alat)
               a(1) = (  -0.500000   0.000000   0.500000 )  
               a(2) = (   0.000000   0.500000   0.500000 )  
               a(3) = (  -0.500000   0.500000   0.000000 )  

     reciprocal axes: (cart. coord. in units 2 pi/alat)
               b(1) = ( -1.000000 -1.000000  1.000000 )  
               b(2) = (  1.000000  1.000000  1.000000 )  
               b(3) = ( -1.000000  1.000000 -1.000000 )  


     PseudoPot. # 1 for Ge read from file:
     ../../PP/Ge.pbe-dn-kjpaw_psl.0.2.2.UPF
     MD5 check sum: acf6dd3aa1b4e03129ff8bf786ac0282
     Pseudo is Projector augmented-wave + core cor, Zval = 14.0
     Generated using "atomic" code by A. Dal Corso v.5.0.2 svn rev. 9415
     Shape of augmentation charge: PSQ
     Using radial grid of 1207 points,  6 beta functions with: 
                l(1) =   0
                l(2) =   0
                l(3) =   1
                l(4) =   1
                l(5) =   2
                l(6) =   2
     Q(r) pseudized with 0 coefficients 


     atomic species   valence    mass     pseudopotential
        Ge            14.00    28.08600     Ge( 1.00)

     48 Sym. Ops., with inversion, found (24 have fractional translation)



   Cartesian axes

     site n.     atom                  positions (alat units)
         1           Ge  tau(   1) = (   0.0000000   0.0000000   0.0000000  )
         2           Ge  tau(   2) = (  -0.2500000   0.2500000   0.2500000  )

     number of k points=    16
                       cart. coord. in units 2pi/alat
        k(    1) = (   0.0000000   0.0000000   0.0000000), wk =   0.0092593
        k(    2) = (  -0.1666667   0.1666667  -0.1666667), wk =   0.0740741
        k(    3) = (  -0.3333333   0.3333333  -0.3333333), wk =   0.0740741
        k(    4) = (   0.5000000  -0.5000000   0.5000000), wk =   0.0370370
        k(    5) = (   0.0000000   0.3333333   0.0000000), wk =   0.0555556
        k(    6) = (  -0.1666667   0.5000000  -0.1666667), wk =   0.2222222
        k(    7) = (   0.6666667  -0.3333333   0.6666667), wk =   0.2222222
        k(    8) = (   0.5000000  -0.1666667   0.5000000), wk =   0.2222222
        k(    9) = (   0.3333333   0.0000000   0.3333333), wk =   0.1111111
        k(   10) = (   0.0000000   0.6666667   0.0000000), wk =   0.0555556
        k(   11) = (   0.8333333  -0.1666667   0.8333333), wk =   0.2222222
        k(   12) = (   0.6666667  -0.0000000   0.6666667), wk =   0.1111111
        k(   13) = (   0.0000000  -1.0000000   0.0000000), wk =   0.0277778
        k(   14) = (   0.6666667  -0.3333333   1.0000000), wk =   0.2222222
        k(   15) = (   0.5000000  -0.1666667   0.8333333), wk =   0.2222222
        k(   16) = (  -0.3333333  -1.0000000   0.0000000), wk =   0.1111111

     Dense  grid:    10177 G-vectors     FFT dimensions: (  32,  32,  32)

     Estimated max dynamical RAM per process >      44.77 MB

     Check: negative/imaginary core charge=   -0.000018    0.000000

     Initial potential from superposition of free atoms

     starting charge   27.99847, renormalised to   28.00000
     Starting wfcs are   18 randomized atomic wfcs
     Checking if some PAW data can be deallocated... 

     total cpu time spent up to now is        1.3 secs

     Self-consistent Calculation

     iteration #  1     ecut=    43.42 Ry     beta= 0.70
     Davidson diagonalization with overlap
     ethr =  1.00E-02,  avg # of iterations =  1.9

     Threshold (ethr) on eigenvalues was too large:
     Diagonalizing with lowered threshold

     Davidson diagonalization with overlap
     ethr =  1.51E-04,  avg # of iterations =  1.9

     total cpu time spent up to now is        2.7 secs

     total energy              =    -631.04613483 Ry
     Harris-Foulkes estimate   =    -631.05600142 Ry
     estimated scf accuracy    <       0.04286955 Ry

     iteration #  2     ecut=    43.42 Ry     beta= 0.70
     Davidson diagonalization with overlap
     ethr =  1.53E-04,  avg # of iterations =  1.2

     total cpu time spent up to now is        3.5 secs

     total energy              =    -631.04750063 Ry
     Harris-Foulkes estimate   =    -631.04762327 Ry
     estimated scf accuracy    <       0.00208362 Ry

     iteration #  3     ecut=    43.42 Ry     beta= 0.70
     Davidson diagonalization with overlap
     ethr =  7.44E-06,  avg # of iterations =  2.2

     total cpu time spent up to now is        4.3 secs

     total energy              =    -631.04769158 Ry
     Harris-Foulkes estimate   =    -631.04773441 Ry
     estimated scf accuracy    <       0.00007871 Ry

     iteration #  4     ecut=    43.42 Ry     beta= 0.70
     Davidson diagonalization with overlap
     ethr =  2.81E-07,  avg # of iterations =  2.2

     total cpu time spent up to now is        5.2 secs

     total energy              =    -631.04772624 Ry
     Harris-Foulkes estimate   =    -631.04772938 Ry
     estimated scf accuracy    <       0.00001032 Ry

     iteration #  5     ecut=    43.42 Ry     beta= 0.70
     Davidson diagonalization with overlap
     ethr =  3.68E-08,  avg # of iterations =  2.0

     total cpu time spent up to now is        6.2 secs

     total energy              =    -631.04772802 Ry
     Harris-Foulkes estimate   =    -631.04772805 Ry
     estimated scf accuracy    <       0.00000025 Ry

     iteration #  6     ecut=    43.42 Ry     beta= 0.70
     Davidson diagonalization with overlap
     ethr =  9.09E-10,  avg # of iterations =  2.9

     total cpu time spent up to now is        7.0 secs

     total energy              =    -631.04772808 Ry
     Harris-Foulkes estimate   =    -631.04772809 Ry
     estimated scf accuracy    <       0.00000003 Ry

     iteration #  7     ecut=    43.42 Ry     beta= 0.70
     Davidson diagonalization with overlap
     ethr =  8.99E-11,  avg # of iterations =  2.1

     total cpu time spent up to now is        7.9 secs

     End of self-consistent calculation

          k = 0.0000 0.0000 0.0000 (  1243 PWs)   bands (ev):

   -14.5670 -14.5670 -14.5670 -14.5193 -14.5193 -14.2173 -14.2173 -14.2173
   -14.1881 -14.1881  -3.4280  10.5152  10.5152  10.5152

          k =-0.1667 0.1667-0.1667 (  1291 PWs)   bands (ev):

   -14.5849 -14.5849 -14.5614 -14.4936 -14.4936 -14.2384 -14.2384 -14.2252
   -14.1720 -14.1720  -3.0436   7.3146   9.8878   9.8878

          k =-0.3333 0.3333-0.3333 (  1272 PWs)   bands (ev):

   -14.5983 -14.5983 -14.5491 -14.4662 -14.4662 -14.2563 -14.2563 -14.2398
   -14.1585 -14.1585  -1.9620   3.9462   9.1448   9.1448

          k = 0.5000-0.5000 0.5000 (  1260 PWs)   bands (ev):

   -14.6008 -14.6008 -14.5427 -14.4593 -14.4593 -14.2595 -14.2595 -14.2474
   -14.1548 -14.1548  -0.9621   2.1559   8.8747   8.8747

          k = 0.0000 0.3333 0.0000 (  1303 PWs)   bands (ev):

   -14.5832 -14.5804 -14.5804 -14.4964 -14.4636 -14.2901 -14.2093 -14.1961
   -14.1961 -14.1672  -2.9125   7.5426   8.9652   8.9652

          k =-0.1667 0.5000-0.1667 (  1296 PWs)   bands (ev):

   -14.6103 -14.5944 -14.5544 -14.4664 -14.4268 -14.3267 -14.2422 -14.2124
   -14.1687 -14.1473  -2.0427   4.8676   7.8976   8.2614

          k = 0.6667-0.3333 0.6667 (  1286 PWs)   bands (ev):

   -14.6254 -14.6057 -14.5208 -14.4389 -14.4269 -14.3172 -14.2746 -14.2502
   -14.1489 -14.1300  -0.7838   2.4987   6.9681   8.1968

          k = 0.5000-0.1667 0.5000 (  1279 PWs)   bands (ev):

   -14.6200 -14.6118 -14.5138 -14.4569 -14.4267 -14.2958 -14.2766 -14.2598
   -14.1408 -14.1384  -1.1875   3.1464   6.6881   8.7758

          k = 0.3333 0.0000 0.3333 (  1293 PWs)   bands (ev):

   -14.6052 -14.5967 -14.5451 -14.4809 -14.4532 -14.2788 -14.2599 -14.2136
   -14.1725 -14.1485  -2.4165   5.6778   7.4943   9.7069

          k = 0.0000 0.6667 0.0000 (  1283 PWs)   bands (ev):

   -14.6027 -14.6027 -14.5661 -14.4334 -14.3987 -14.3671 -14.2676 -14.1930
   -14.1546 -14.1546  -1.3929   4.1195   7.4429   7.4429

          k = 0.8333-0.1667 0.8333 (  1278 PWs)   bands (ev):

   -14.6284 -14.6112 -14.5172 -14.4247 -14.3948 -14.3381 -14.3084 -14.2469
   -14.1391 -14.1238  -0.1478   2.3960   6.0952   7.2650

          k = 0.6667-0.0000 0.6667 (  1292 PWs)   bands (ev):

   -14.6406 -14.6163 -14.4942 -14.3905 -14.3799 -14.3637 -14.3325 -14.2698
   -14.1338 -14.1126   0.0422   2.1946   5.2473   7.7940

          k = 0.0000-1.0000 0.0000 (  1298 PWs)   bands (ev):

   -14.6128 -14.6128 -14.5004 -14.5004 -14.3494 -14.3494 -14.2679 -14.2679
   -14.1353 -14.1353   1.0279   1.0279   6.9031   6.9031

          k = 0.6667-0.3333 1.0000 (  1278 PWs)   bands (ev):

   -14.6221 -14.6190 -14.5139 -14.4364 -14.3850 -14.3657 -14.2746 -14.2523
   -14.1346 -14.1341  -0.9858   3.4325   6.1607   7.6200

          k = 0.5000-0.1667 0.8333 (  1280 PWs)   bands (ev):

   -14.6370 -14.6223 -14.4829 -14.4107 -14.3759 -14.3665 -14.3153 -14.2770
   -14.1295 -14.1158   0.0514   2.1338   5.6541   7.0922

          k =-0.3333-1.0000 0.0000 (  1268 PWs)   bands (ev):

   -14.6300 -14.6300 -14.4550 -14.4550 -14.3557 -14.3557 -14.3034 -14.3034
   -14.1204 -14.1204   1.1379   1.1379   6.0905   6.0905

     highest occupied level (ev):    10.5152

!    total energy              =    -631.04772808 Ry
     Harris-Foulkes estimate   =    -631.04772808 Ry
     estimated scf accuracy    <          1.1E-10 Ry

     total all-electron energy =     -8395.960989 Ry

     The total energy is the sum of the following terms:

     one-electron contribution =    -269.36328427 Ry
     hartree contribution      =     156.79794143 Ry
     xc contribution           =    -113.89201693 Ry
     ewald contribution        =    -207.02204251 Ry
     one-center paw contrib.   =    -197.56832580 Ry

     convergence has been achieved in   7 iterations

     Forces acting on atoms (cartesian axes, Ry/au):

     atom    1 type  1   force =    -0.00000000   -0.00000000   -0.00000000
     atom    2 type  1   force =     0.00000000    0.00000000    0.00000000

     Total force =     0.000000     Total SCF correction =     0.000000


     Computing stress (Cartesian axis) and pressure

          total   stress  (Ry/bohr**3)                   (kbar)     P=  176.05
   0.00119679  -0.00000000   0.00000000        176.05     -0.00      0.00
  -0.00000000   0.00119679  -0.00000000         -0.00    176.05     -0.00
   0.00000000   0.00000000   0.00119679          0.00      0.00    176.05


     Writing output data file germanium.save/
 
     init_run     :      0.68s CPU      0.70s WALL (       1 calls)
     electrons    :      6.50s CPU      6.51s WALL (       1 calls)
     forces       :      0.06s CPU      0.06s WALL (       1 calls)
     stress       :      0.16s CPU      0.16s WALL (       1 calls)

     Called by init_run:
     wfcinit      :      0.26s CPU      0.26s WALL (       1 calls)
     potinit      :      0.18s CPU      0.19s WALL (       1 calls)
     hinit0       :      0.21s CPU      0.23s WALL (       1 calls)

     Called by electrons:
     c_bands      :      4.30s CPU      4.31s WALL (       8 calls)
     sum_band     :      0.88s CPU      0.88s WALL (       8 calls)
     v_of_rho     :      0.07s CPU      0.07s WALL (       8 calls)
     newd         :      0.08s CPU      0.09s WALL (       8 calls)
     PAW_pot      :      1.34s CPU      1.34s WALL (       8 calls)
     mix_rho      :      0.01s CPU      0.01s WALL (       8 calls)

     Called by c_bands:
     init_us_2    :      0.06s CPU      0.07s WALL (     304 calls)
     cegterg      :      3.96s CPU      4.00s WALL (     128 calls)

     Called by sum_band:
     sum_band:bec :      0.00s CPU      0.00s WALL (     128 calls)
     addusdens    :      0.10s CPU      0.11s WALL (       8 calls)

     Called by *egterg:
     h_psi        :      3.61s CPU      3.62s WALL (     410 calls)
     s_psi        :      0.14s CPU      0.15s WALL (     410 calls)
     g_psi        :      0.00s CPU      0.01s WALL (     266 calls)
     cdiaghg      :      0.04s CPU      0.08s WALL (     378 calls)

     Called by h_psi:
     h_psi:pot    :      3.60s CPU      3.62s WALL (     410 calls)
     h_psi:calbec :      0.20s CPU      0.15s WALL (     410 calls)
     vloc_psi     :      3.24s CPU      3.31s WALL (     410 calls)
     add_vuspsi   :      0.16s CPU      0.15s WALL (     410 calls)

     General routines
     calbec       :      0.29s CPU      0.24s WALL (     618 calls)
     fft          :      0.06s CPU      0.05s WALL (     115 calls)
     ffts         :      0.00s CPU      0.00s WALL (       8 calls)
     fftw         :      3.69s CPU      3.80s WALL (   11080 calls)
 
     Parallel routines
 
     PWSCF        :     8.05s CPU         8.12s WALL

 
   This run was terminated on:  15:56:11  10May2022            

=------------------------------------------------------------------------------=
   JOB DONE.
=------------------------------------------------------------------------------=
