
     Program PWSCF v.6.3MaX starts on 10May2022 at 15:55:35 

     This program is part of the open-source Quantum ESPRESSO suite
     for quantum simulation of materials; please cite
         "P. Giannozzi et al., J. Phys.:Condens. Matter 21 395502 (2009);
         "P. Giannozzi et al., J. Phys.:Condens. Matter 29 465901 (2017);
          URL http://www.quantum-espresso.org", 
     in publications or presentations arising from this work. More details at
     http://www.quantum-espresso.org/quote

     Parallel version (MPI), running on     1 processors

     MPI processes distributed on     1 nodes
     Waiting for input...
     Reading input from standard input

     Current dimensions of program PWSCF are:
     Max number of different atomic species (ntypx) = 10
     Max number of k-points (npk) =  40000
     Max angular momentum in pseudopotentials (lmaxx) =  3
               file Ge.pbe-dn-kjpaw_psl.0.2.2.UPF: wavefunction(s)  4P 3D renormalized

     Subspace diagonalization in iterative solution of the eigenvalue problem:
     a serial algorithm will be used

 
     G-vector sticks info
     --------------------
     sticks:   dense  smooth     PW     G-vecs:    dense   smooth      PW
     Sum         517     517    163                 7991     7991    1459
 


     bravais-lattice index     =            2
     lattice parameter (alat)  =      10.2000  a.u.
     unit-cell volume          =     265.3020 (a.u.)^3
     number of atoms/cell      =            2
     number of atomic types    =            1
     number of electrons       =        28.00
     number of Kohn-Sham states=           14
     kinetic-energy cutoff     =      37.1050  Ry
     charge density cutoff     =     148.4200  Ry
     convergence threshold     =      1.0E-08
     mixing beta               =       0.7000
     number of iterations used =            8  plain     mixing
     Exchange-correlation      = SLA PW PBX PBC ( 1  4  3  4 0 0)

     celldm(1)=  10.200000  celldm(2)=   0.000000  celldm(3)=   0.000000
     celldm(4)=   0.000000  celldm(5)=   0.000000  celldm(6)=   0.000000

     crystal axes: (cart. coord. in units of alat)
               a(1) = (  -0.500000   0.000000   0.500000 )  
               a(2) = (   0.000000   0.500000   0.500000 )  
               a(3) = (  -0.500000   0.500000   0.000000 )  

     reciprocal axes: (cart. coord. in units 2 pi/alat)
               b(1) = ( -1.000000 -1.000000  1.000000 )  
               b(2) = (  1.000000  1.000000  1.000000 )  
               b(3) = ( -1.000000  1.000000 -1.000000 )  


     PseudoPot. # 1 for Ge read from file:
     ../../PP/Ge.pbe-dn-kjpaw_psl.0.2.2.UPF
     MD5 check sum: acf6dd3aa1b4e03129ff8bf786ac0282
     Pseudo is Projector augmented-wave + core cor, Zval = 14.0
     Generated using "atomic" code by A. Dal Corso v.5.0.2 svn rev. 9415
     Shape of augmentation charge: PSQ
     Using radial grid of 1207 points,  6 beta functions with: 
                l(1) =   0
                l(2) =   0
                l(3) =   1
                l(4) =   1
                l(5) =   2
                l(6) =   2
     Q(r) pseudized with 0 coefficients 


     atomic species   valence    mass     pseudopotential
        Ge            14.00    28.08600     Ge( 1.00)

     24 Sym. Ops. (no inversion) found
          (note: 24 additional sym.ops. were found but ignored
           their fractional translations are incommensurate with FFT grid)


   Cartesian axes

     site n.     atom                  positions (alat units)
         1           Ge  tau(   1) = (   0.0000000   0.0000000   0.0000000  )
         2           Ge  tau(   2) = (  -0.2500000   0.2500000   0.2500000  )

     number of k points=    16
                       cart. coord. in units 2pi/alat
        k(    1) = (   0.0000000   0.0000000   0.0000000), wk =   0.0092593
        k(    2) = (  -0.1666667   0.1666667  -0.1666667), wk =   0.0740741
        k(    3) = (  -0.3333333   0.3333333  -0.3333333), wk =   0.0740741
        k(    4) = (   0.5000000  -0.5000000   0.5000000), wk =   0.0370370
        k(    5) = (   0.0000000   0.3333333   0.0000000), wk =   0.0555556
        k(    6) = (  -0.1666667   0.5000000  -0.1666667), wk =   0.2222222
        k(    7) = (   0.6666667  -0.3333333   0.6666667), wk =   0.2222222
        k(    8) = (   0.5000000  -0.1666667   0.5000000), wk =   0.2222222
        k(    9) = (   0.3333333   0.0000000   0.3333333), wk =   0.1111111
        k(   10) = (   0.0000000   0.6666667   0.0000000), wk =   0.0555556
        k(   11) = (   0.8333333  -0.1666667   0.8333333), wk =   0.2222222
        k(   12) = (   0.6666667  -0.0000000   0.6666667), wk =   0.1111111
        k(   13) = (   0.0000000  -1.0000000   0.0000000), wk =   0.0277778
        k(   14) = (   0.6666667  -0.3333333   1.0000000), wk =   0.2222222
        k(   15) = (   0.5000000  -0.1666667   0.8333333), wk =   0.2222222
        k(   16) = (  -0.3333333  -1.0000000   0.0000000), wk =   0.1111111

     Dense  grid:     7991 G-vectors     FFT dimensions: (  27,  27,  27)

     Estimated max dynamical RAM per process >      35.00 MB

     Check: negative/imaginary core charge=   -0.000112    0.000000

     Initial potential from superposition of free atoms

     starting charge   27.99847, renormalised to   28.00000
     Starting wfcs are   18 randomized atomic wfcs
     Checking if some PAW data can be deallocated... 

     total cpu time spent up to now is        1.2 secs

     Self-consistent Calculation

     iteration #  1     ecut=    37.10 Ry     beta= 0.70
     Davidson diagonalization with overlap
     ethr =  1.00E-02,  avg # of iterations =  2.0

     Threshold (ethr) on eigenvalues was too large:
     Diagonalizing with lowered threshold

     Davidson diagonalization with overlap
     ethr =  1.52E-04,  avg # of iterations =  1.9

     total cpu time spent up to now is        2.2 secs

     total energy              =    -631.04772288 Ry
     Harris-Foulkes estimate   =    -631.05738306 Ry
     estimated scf accuracy    <       0.04308977 Ry

     iteration #  2     ecut=    37.10 Ry     beta= 0.70
     Davidson diagonalization with overlap
     ethr =  1.54E-04,  avg # of iterations =  1.2

     total cpu time spent up to now is        2.7 secs

     total energy              =    -631.04905983 Ry
     Harris-Foulkes estimate   =    -631.04916882 Ry
     estimated scf accuracy    <       0.00214838 Ry

     iteration #  3     ecut=    37.10 Ry     beta= 0.70
     Davidson diagonalization with overlap
     ethr =  7.67E-06,  avg # of iterations =  2.2

     total cpu time spent up to now is        3.3 secs

     total energy              =    -631.04924975 Ry
     Harris-Foulkes estimate   =    -631.04929143 Ry
     estimated scf accuracy    <       0.00007682 Ry

     iteration #  4     ecut=    37.10 Ry     beta= 0.70
     Davidson diagonalization with overlap
     ethr =  2.74E-07,  avg # of iterations =  2.2

     total cpu time spent up to now is        4.0 secs

     total energy              =    -631.04928258 Ry
     Harris-Foulkes estimate   =    -631.04928543 Ry
     estimated scf accuracy    <       0.00000978 Ry

     iteration #  5     ecut=    37.10 Ry     beta= 0.70
     Davidson diagonalization with overlap
     ethr =  3.49E-08,  avg # of iterations =  2.1

     total cpu time spent up to now is        4.7 secs

     total energy              =    -631.04928426 Ry
     Harris-Foulkes estimate   =    -631.04928428 Ry
     estimated scf accuracy    <       0.00000024 Ry

     iteration #  6     ecut=    37.10 Ry     beta= 0.70
     Davidson diagonalization with overlap
     ethr =  8.50E-10,  avg # of iterations =  2.8

     total cpu time spent up to now is        5.3 secs

     total energy              =    -631.04928431 Ry
     Harris-Foulkes estimate   =    -631.04928432 Ry
     estimated scf accuracy    <       0.00000002 Ry

     iteration #  7     ecut=    37.10 Ry     beta= 0.70
     Davidson diagonalization with overlap
     ethr =  6.63E-11,  avg # of iterations =  2.5

     total cpu time spent up to now is        6.0 secs

     End of self-consistent calculation

          k = 0.0000 0.0000 0.0000 (   965 PWs)   bands (ev):

   -14.5524 -14.5524 -14.5524 -14.4982 -14.4982 -14.2025 -14.2025 -14.2025
   -14.1668 -14.1668  -3.4168  10.5230  10.5230  10.5230

          k =-0.1667 0.1667-0.1667 (   989 PWs)   bands (ev):

   -14.5692 -14.5692 -14.5464 -14.4728 -14.4728 -14.2201 -14.2201 -14.2098
   -14.1532 -14.1532  -3.0326   7.3240   9.8957   9.8957

          k =-0.3333 0.3333-0.3333 (  1008 PWs)   bands (ev):

   -14.5829 -14.5829 -14.5343 -14.4456 -14.4456 -14.2359 -14.2359 -14.2246
   -14.1418 -14.1418  -1.9520   3.9577   9.1525   9.1525

          k = 0.5000-0.5000 0.5000 (  1008 PWs)   bands (ev):

   -14.5857 -14.5857 -14.5282 -14.4387 -14.4387 -14.2379 -14.2379 -14.2323
   -14.1395 -14.1395  -0.9538   2.1696   8.8823   8.8823

          k = 0.0000 0.3333 0.0000 (   998 PWs)   bands (ev):

   -14.5666 -14.5652 -14.5652 -14.4748 -14.4440 -14.2724 -14.1878 -14.1805
   -14.1805 -14.1473  -2.9017   7.5501   8.9739   8.9739

          k =-0.1667 0.5000-0.1667 (  1011 PWs)   bands (ev):

   -14.5946 -14.5792 -14.5383 -14.4449 -14.4071 -14.3086 -14.2207 -14.1949
   -14.1530 -14.1299  -2.0324   4.8767   7.9091   8.2702

          k = 0.6667-0.3333 0.6667 (  1008 PWs)   bands (ev):

   -14.6100 -14.5904 -14.5050 -14.4179 -14.4069 -14.2993 -14.2530 -14.2316
   -14.1332 -14.1138  -0.7751   2.5104   6.9808   8.2053

          k = 0.5000-0.1667 0.5000 (  1013 PWs)   bands (ev):

   -14.6049 -14.5962 -14.4988 -14.4360 -14.4061 -14.2752 -14.2614 -14.2383
   -14.1241 -14.1227  -1.1782   3.1571   6.7014   8.7837

          k = 0.3333 0.0000 0.3333 (   999 PWs)   bands (ev):

   -14.5892 -14.5815 -14.5295 -14.4598 -14.4329 -14.2593 -14.2432 -14.1934
   -14.1571 -14.1305  -2.4060   5.6862   7.5075   9.7143

          k = 0.0000 0.6667 0.0000 (  1018 PWs)   bands (ev):

   -14.5877 -14.5877 -14.5489 -14.4118 -14.3811 -14.3479 -14.2461 -14.1737
   -14.1392 -14.1392  -1.3829   4.1270   7.4522   7.4522

          k = 0.8333-0.1667 0.8333 (  1012 PWs)   bands (ev):

   -14.6132 -14.5963 -14.5001 -14.4072 -14.3735 -14.3191 -14.2869 -14.2280
   -14.1235 -14.1079  -0.1388   2.4040   6.1098   7.2742

          k = 0.6667-0.0000 0.6667 (  1015 PWs)   bands (ev):

   -14.6254 -14.6009 -14.4772 -14.3714 -14.3588 -14.3468 -14.3115 -14.2500
   -14.1173 -14.0965   0.0503   2.2031   5.2644   7.8028

          k = 0.0000-1.0000 0.0000 (   998 PWs)   bands (ev):

   -14.5979 -14.5979 -14.4829 -14.4826 -14.3278 -14.3276 -14.2487 -14.2484
   -14.1195 -14.1195   1.0365   1.0366   6.9124   6.9124

          k = 0.6667-0.3333 1.0000 (  1019 PWs)   bands (ev):

   -14.6071 -14.6035 -14.4977 -14.4152 -14.3654 -14.3478 -14.2533 -14.2344
   -14.1184 -14.1181  -0.9764   3.4404   6.1756   7.6312

          k = 0.5000-0.1667 0.8333 (  1020 PWs)   bands (ev):

   -14.6219 -14.6070 -14.4665 -14.3903 -14.3560 -14.3490 -14.2945 -14.2576
   -14.1133 -14.0997   0.0595   2.1429   5.6698   7.1046

          k =-0.3333-1.0000 0.0000 (  1016 PWs)   bands (ev):

   -14.6150 -14.6149 -14.4381 -14.4378 -14.3349 -14.3347 -14.2844 -14.2842
   -14.1046 -14.1045   1.1459   1.1459   6.1050   6.1052

     highest occupied level (ev):    10.5230

!    total energy              =    -631.04928431 Ry
     Harris-Foulkes estimate   =    -631.04928431 Ry
     estimated scf accuracy    <          2.2E-09 Ry

     total all-electron energy =     -8395.962546 Ry

     The total energy is the sum of the following terms:

     one-electron contribution =    -269.38324715 Ry
     hartree contribution      =     156.82439219 Ry
     xc contribution           =    -113.89996812 Ry
     ewald contribution        =    -207.02204251 Ry
     one-center paw contrib.   =    -197.56841872 Ry

     convergence has been achieved in   7 iterations

     Forces acting on atoms (cartesian axes, Ry/au):

     atom    1 type  1   force =     0.00000000   -0.00000000    0.00000000
     atom    2 type  1   force =     0.00000000    0.00000000   -0.00000000

     Total force =     0.000000     Total SCF correction =     0.000000


     Computing stress (Cartesian axis) and pressure

          total   stress  (Ry/bohr**3)                   (kbar)     P=  199.75
   0.00135789   0.00000000   0.00000000        199.75      0.00      0.00
   0.00000000   0.00135789  -0.00000000          0.00    199.75     -0.00
   0.00000000  -0.00000000   0.00135789          0.00     -0.00    199.75


     Writing output data file germanium.save/
 
     init_run     :      0.54s CPU      0.57s WALL (       1 calls)
     electrons    :      4.75s CPU      4.77s WALL (       1 calls)
     forces       :      0.05s CPU      0.05s WALL (       1 calls)
     stress       :      0.12s CPU      0.12s WALL (       1 calls)

     Called by init_run:
     wfcinit      :      0.17s CPU      0.17s WALL (       1 calls)
     potinit      :      0.16s CPU      0.18s WALL (       1 calls)
     hinit0       :      0.19s CPU      0.20s WALL (       1 calls)

     Called by electrons:
     c_bands      :      2.91s CPU      2.92s WALL (       8 calls)
     sum_band     :      0.57s CPU      0.58s WALL (       8 calls)
     v_of_rho     :      0.04s CPU      0.04s WALL (       8 calls)
     newd         :      0.06s CPU      0.07s WALL (       8 calls)
     PAW_pot      :      1.32s CPU      1.34s WALL (       8 calls)
     mix_rho      :      0.00s CPU      0.00s WALL (       8 calls)

     Called by c_bands:
     init_us_2    :      0.06s CPU      0.05s WALL (     304 calls)
     cegterg      :      2.66s CPU      2.67s WALL (     128 calls)

     Called by sum_band:
     sum_band:bec :      0.00s CPU      0.00s WALL (     128 calls)
     addusdens    :      0.09s CPU      0.09s WALL (       8 calls)

     Called by *egterg:
     h_psi        :      2.30s CPU      2.32s WALL (     415 calls)
     s_psi        :      0.08s CPU      0.12s WALL (     415 calls)
     g_psi        :      0.00s CPU      0.01s WALL (     271 calls)
     cdiaghg      :      0.08s CPU      0.08s WALL (     383 calls)

     Called by h_psi:
     h_psi:pot    :      2.28s CPU      2.32s WALL (     415 calls)
     h_psi:calbec :      0.08s CPU      0.12s WALL (     415 calls)
     vloc_psi     :      2.08s CPU      2.08s WALL (     415 calls)
     add_vuspsi   :      0.12s CPU      0.12s WALL (     415 calls)

     General routines
     calbec       :      0.15s CPU      0.19s WALL (     623 calls)
     fft          :      0.02s CPU      0.02s WALL (     115 calls)
     ffts         :      0.00s CPU      0.00s WALL (       8 calls)
     fftw         :      2.33s CPU      2.38s WALL (   11152 calls)
 
     Parallel routines
 
     PWSCF        :     6.10s CPU         6.18s WALL

 
   This run was terminated on:  15:55:42  10May2022            

=------------------------------------------------------------------------------=
   JOB DONE.
=------------------------------------------------------------------------------=
