
     Program PWSCF v.6.3MaX starts on 10May2022 at 15:55:56 

     This program is part of the open-source Quantum ESPRESSO suite
     for quantum simulation of materials; please cite
         "P. Giannozzi et al., J. Phys.:Condens. Matter 21 395502 (2009);
         "P. Giannozzi et al., J. Phys.:Condens. Matter 29 465901 (2017);
          URL http://www.quantum-espresso.org", 
     in publications or presentations arising from this work. More details at
     http://www.quantum-espresso.org/quote

     Parallel version (MPI), running on     1 processors

     MPI processes distributed on     1 nodes
     Waiting for input...
     Reading input from standard input

     Current dimensions of program PWSCF are:
     Max number of different atomic species (ntypx) = 10
     Max number of k-points (npk) =  40000
     Max angular momentum in pseudopotentials (lmaxx) =  3
               file Ge.pbe-dn-kjpaw_psl.0.2.2.UPF: wavefunction(s)  4P 3D renormalized

     Subspace diagonalization in iterative solution of the eigenvalue problem:
     a serial algorithm will be used

 
     G-vector sticks info
     --------------------
     sticks:   dense  smooth     PW     G-vecs:    dense   smooth      PW
     Sum         595     595    187                 9721     9721    1687
 


     bravais-lattice index     =            2
     lattice parameter (alat)  =      10.2000  a.u.
     unit-cell volume          =     265.3020 (a.u.)^3
     number of atoms/cell      =            2
     number of atomic types    =            1
     number of electrons       =        28.00
     number of Kohn-Sham states=           14
     kinetic-energy cutoff     =      41.8420  Ry
     charge density cutoff     =     167.3680  Ry
     convergence threshold     =      1.0E-08
     mixing beta               =       0.7000
     number of iterations used =            8  plain     mixing
     Exchange-correlation      = SLA PW PBX PBC ( 1  4  3  4 0 0)

     celldm(1)=  10.200000  celldm(2)=   0.000000  celldm(3)=   0.000000
     celldm(4)=   0.000000  celldm(5)=   0.000000  celldm(6)=   0.000000

     crystal axes: (cart. coord. in units of alat)
               a(1) = (  -0.500000   0.000000   0.500000 )  
               a(2) = (   0.000000   0.500000   0.500000 )  
               a(3) = (  -0.500000   0.500000   0.000000 )  

     reciprocal axes: (cart. coord. in units 2 pi/alat)
               b(1) = ( -1.000000 -1.000000  1.000000 )  
               b(2) = (  1.000000  1.000000  1.000000 )  
               b(3) = ( -1.000000  1.000000 -1.000000 )  


     PseudoPot. # 1 for Ge read from file:
     ../../PP/Ge.pbe-dn-kjpaw_psl.0.2.2.UPF
     MD5 check sum: acf6dd3aa1b4e03129ff8bf786ac0282
     Pseudo is Projector augmented-wave + core cor, Zval = 14.0
     Generated using "atomic" code by A. Dal Corso v.5.0.2 svn rev. 9415
     Shape of augmentation charge: PSQ
     Using radial grid of 1207 points,  6 beta functions with: 
                l(1) =   0
                l(2) =   0
                l(3) =   1
                l(4) =   1
                l(5) =   2
                l(6) =   2
     Q(r) pseudized with 0 coefficients 


     atomic species   valence    mass     pseudopotential
        Ge            14.00    28.08600     Ge( 1.00)

     24 Sym. Ops. (no inversion) found
          (note: 24 additional sym.ops. were found but ignored
           their fractional translations are incommensurate with FFT grid)


   Cartesian axes

     site n.     atom                  positions (alat units)
         1           Ge  tau(   1) = (   0.0000000   0.0000000   0.0000000  )
         2           Ge  tau(   2) = (  -0.2500000   0.2500000   0.2500000  )

     number of k points=    16
                       cart. coord. in units 2pi/alat
        k(    1) = (   0.0000000   0.0000000   0.0000000), wk =   0.0092593
        k(    2) = (  -0.1666667   0.1666667  -0.1666667), wk =   0.0740741
        k(    3) = (  -0.3333333   0.3333333  -0.3333333), wk =   0.0740741
        k(    4) = (   0.5000000  -0.5000000   0.5000000), wk =   0.0370370
        k(    5) = (   0.0000000   0.3333333   0.0000000), wk =   0.0555556
        k(    6) = (  -0.1666667   0.5000000  -0.1666667), wk =   0.2222222
        k(    7) = (   0.6666667  -0.3333333   0.6666667), wk =   0.2222222
        k(    8) = (   0.5000000  -0.1666667   0.5000000), wk =   0.2222222
        k(    9) = (   0.3333333   0.0000000   0.3333333), wk =   0.1111111
        k(   10) = (   0.0000000   0.6666667   0.0000000), wk =   0.0555556
        k(   11) = (   0.8333333  -0.1666667   0.8333333), wk =   0.2222222
        k(   12) = (   0.6666667  -0.0000000   0.6666667), wk =   0.1111111
        k(   13) = (   0.0000000  -1.0000000   0.0000000), wk =   0.0277778
        k(   14) = (   0.6666667  -0.3333333   1.0000000), wk =   0.2222222
        k(   15) = (   0.5000000  -0.1666667   0.8333333), wk =   0.2222222
        k(   16) = (  -0.3333333  -1.0000000   0.0000000), wk =   0.1111111

     Dense  grid:     9721 G-vectors     FFT dimensions: (  30,  30,  30)

     Estimated max dynamical RAM per process >      42.47 MB

     Check: negative/imaginary core charge=   -0.000025    0.000000

     Initial potential from superposition of free atoms

     starting charge   27.99847, renormalised to   28.00000
     Starting wfcs are   18 randomized atomic wfcs
     Checking if some PAW data can be deallocated... 

     total cpu time spent up to now is        1.3 secs

     Self-consistent Calculation

     iteration #  1     ecut=    41.84 Ry     beta= 0.70
     Davidson diagonalization with overlap
     ethr =  1.00E-02,  avg # of iterations =  2.0

     Threshold (ethr) on eigenvalues was too large:
     Diagonalizing with lowered threshold

     Davidson diagonalization with overlap
     ethr =  1.51E-04,  avg # of iterations =  1.9

     total cpu time spent up to now is        2.4 secs

     total energy              =    -631.04547999 Ry
     Harris-Foulkes estimate   =    -631.05545963 Ry
     estimated scf accuracy    <       0.04285484 Ry

     iteration #  2     ecut=    41.84 Ry     beta= 0.70
     Davidson diagonalization with overlap
     ethr =  1.53E-04,  avg # of iterations =  1.2

     total cpu time spent up to now is        3.1 secs

     total energy              =    -631.04682797 Ry
     Harris-Foulkes estimate   =    -631.04696850 Ry
     estimated scf accuracy    <       0.00210705 Ry

     iteration #  3     ecut=    41.84 Ry     beta= 0.70
     Davidson diagonalization with overlap
     ethr =  7.53E-06,  avg # of iterations =  2.2

     total cpu time spent up to now is        3.8 secs

     total energy              =    -631.04701963 Ry
     Harris-Foulkes estimate   =    -631.04706421 Ry
     estimated scf accuracy    <       0.00008070 Ry

     iteration #  4     ecut=    41.84 Ry     beta= 0.70
     Davidson diagonalization with overlap
     ethr =  2.88E-07,  avg # of iterations =  2.3

     total cpu time spent up to now is        4.6 secs

     total energy              =    -631.04705397 Ry
     Harris-Foulkes estimate   =    -631.04705677 Ry
     estimated scf accuracy    <       0.00000980 Ry

     iteration #  5     ecut=    41.84 Ry     beta= 0.70
     Davidson diagonalization with overlap
     ethr =  3.50E-08,  avg # of iterations =  2.0

     total cpu time spent up to now is        5.4 secs

     total energy              =    -631.04705568 Ry
     Harris-Foulkes estimate   =    -631.04705568 Ry
     estimated scf accuracy    <       0.00000022 Ry

     iteration #  6     ecut=    41.84 Ry     beta= 0.70
     Davidson diagonalization with overlap
     ethr =  8.02E-10,  avg # of iterations =  2.9

     total cpu time spent up to now is        6.1 secs

     total energy              =    -631.04705573 Ry
     Harris-Foulkes estimate   =    -631.04705573 Ry
     estimated scf accuracy    <       0.00000002 Ry

     iteration #  7     ecut=    41.84 Ry     beta= 0.70
     Davidson diagonalization with overlap
     ethr =  5.60E-11,  avg # of iterations =  2.6

     total cpu time spent up to now is        6.9 secs

     End of self-consistent calculation

          k = 0.0000 0.0000 0.0000 (  1243 PWs)   bands (ev):

   -14.5641 -14.5641 -14.5641 -14.5160 -14.5160 -14.2144 -14.2144 -14.2144
   -14.1848 -14.1848  -3.4273  10.5156  10.5156  10.5156

          k =-0.1667 0.1667-0.1667 (  1227 PWs)   bands (ev):

   -14.5816 -14.5816 -14.5583 -14.4897 -14.4897 -14.2347 -14.2347 -14.2218
   -14.1684 -14.1684  -3.0429   7.3151   9.8883   9.8883

          k =-0.3333 0.3333-0.3333 (  1218 PWs)   bands (ev):

   -14.5950 -14.5950 -14.5462 -14.4626 -14.4626 -14.2526 -14.2526 -14.2363
   -14.1550 -14.1550  -1.9615   3.9469   9.1452   9.1452

          k = 0.5000-0.5000 0.5000 (  1194 PWs)   bands (ev):

   -14.5976 -14.5976 -14.5395 -14.4555 -14.4555 -14.2555 -14.2555 -14.2439
   -14.1515 -14.1515  -0.9617   2.1569   8.8751   8.8751

          k = 0.0000 0.3333 0.0000 (  1219 PWs)   bands (ev):

   -14.5801 -14.5769 -14.5769 -14.4925 -14.4600 -14.2863 -14.2057 -14.1922
   -14.1922 -14.1630  -2.9119   7.5429   8.9656   8.9656

          k =-0.1667 0.5000-0.1667 (  1218 PWs)   bands (ev):

   -14.6070 -14.5910 -14.5510 -14.4625 -14.4230 -14.3228 -14.2384 -14.2087
   -14.1652 -14.1434  -2.0421   4.8681   7.8984   8.2619

          k = 0.6667-0.3333 0.6667 (  1213 PWs)   bands (ev):

   -14.6220 -14.6023 -14.5173 -14.4351 -14.4231 -14.3137 -14.2707 -14.2464
   -14.1454 -14.1263  -0.7834   2.4994   6.9690   8.1972

          k = 0.5000-0.1667 0.5000 (  1204 PWs)   bands (ev):

   -14.6167 -14.6084 -14.5104 -14.4532 -14.4229 -14.2917 -14.2733 -14.2559
   -14.1371 -14.1348  -1.1870   3.1471   6.6890   8.7762

          k = 0.3333 0.0000 0.3333 (  1225 PWs)   bands (ev):

   -14.6018 -14.5933 -14.5417 -14.4771 -14.4496 -14.2747 -14.2566 -14.2098
   -14.1692 -14.1447  -2.4159   5.6782   7.4952   9.7073

          k = 0.0000 0.6667 0.0000 (  1218 PWs)   bands (ev):

   -14.5994 -14.5994 -14.5628 -14.4294 -14.3953 -14.3634 -14.2639 -14.1894
   -14.1511 -14.1511  -1.3923   4.1199   7.4434   7.4434

          k = 0.8333-0.1667 0.8333 (  1211 PWs)   bands (ev):

   -14.6250 -14.6079 -14.5137 -14.4212 -14.3911 -14.3345 -14.3045 -14.2432
   -14.1354 -14.1202  -0.1473   2.3964   6.0962   7.2655

          k = 0.6667-0.0000 0.6667 (  1204 PWs)   bands (ev):

   -14.6372 -14.6129 -14.4906 -14.3867 -14.3760 -14.3601 -14.3286 -14.2659
   -14.1297 -14.1088   0.0426   2.1950   5.2485   7.7945

          k = 0.0000-1.0000 0.0000 (  1234 PWs)   bands (ev):

   -14.6094 -14.6094 -14.4970 -14.4970 -14.3456 -14.3455 -14.2645 -14.2645
   -14.1315 -14.1315   1.0283   1.0283   6.9035   6.9035

          k = 0.6667-0.3333 1.0000 (  1216 PWs)   bands (ev):

   -14.6189 -14.6157 -14.5104 -14.4326 -14.3815 -14.3621 -14.2709 -14.2488
   -14.1311 -14.1304  -0.9853   3.4329   6.1618   7.6207

          k = 0.5000-0.1667 0.8333 (  1198 PWs)   bands (ev):

   -14.6336 -14.6189 -14.4792 -14.4070 -14.3720 -14.3629 -14.3114 -14.2732
   -14.1258 -14.1119   0.0518   2.1343   5.6552   7.0930

          k =-0.3333-1.0000 0.0000 (  1200 PWs)   bands (ev):

   -14.6267 -14.6267 -14.4515 -14.4515 -14.3521 -14.3520 -14.2997 -14.2997
   -14.1168 -14.1168   1.1383   1.1383   6.0915   6.0915

     highest occupied level (ev):    10.5156

!    total energy              =    -631.04705573 Ry
     Harris-Foulkes estimate   =    -631.04705573 Ry
     estimated scf accuracy    <          2.1E-09 Ry

     total all-electron energy =     -8395.960317 Ry

     The total energy is the sum of the following terms:

     one-electron contribution =    -269.36542326 Ry
     hartree contribution      =     156.80228042 Ry
     xc contribution           =    -113.89346140 Ry
     ewald contribution        =    -207.02204250 Ry
     one-center paw contrib.   =    -197.56840900 Ry

     convergence has been achieved in   7 iterations

     Forces acting on atoms (cartesian axes, Ry/au):

     atom    1 type  1   force =    -0.00000000   -0.00000000   -0.00000000
     atom    2 type  1   force =     0.00000000    0.00000000    0.00000000

     Total force =     0.000000     Total SCF correction =     0.000000


     Computing stress (Cartesian axis) and pressure

          total   stress  (Ry/bohr**3)                   (kbar)     P=  180.47
   0.00122684  -0.00000000  -0.00000000        180.47     -0.00     -0.00
  -0.00000000   0.00122684   0.00000000         -0.00    180.47      0.00
  -0.00000000   0.00000000   0.00122684         -0.00      0.00    180.47


     Writing output data file germanium.save/
 
     init_run     :      0.60s CPU      0.63s WALL (       1 calls)
     electrons    :      5.58s CPU      5.61s WALL (       1 calls)
     forces       :      0.06s CPU      0.06s WALL (       1 calls)
     stress       :      0.16s CPU      0.16s WALL (       1 calls)

     Called by init_run:
     wfcinit      :      0.21s CPU      0.22s WALL (       1 calls)
     potinit      :      0.17s CPU      0.18s WALL (       1 calls)
     hinit0       :      0.21s CPU      0.21s WALL (       1 calls)

     Called by electrons:
     c_bands      :      3.58s CPU      3.60s WALL (       8 calls)
     sum_band     :      0.71s CPU      0.71s WALL (       8 calls)
     v_of_rho     :      0.05s CPU      0.06s WALL (       8 calls)
     newd         :      0.07s CPU      0.09s WALL (       8 calls)
     PAW_pot      :      1.33s CPU      1.34s WALL (       8 calls)
     mix_rho      :      0.00s CPU      0.01s WALL (       8 calls)

     Called by c_bands:
     init_us_2    :      0.06s CPU      0.06s WALL (     304 calls)
     cegterg      :      3.28s CPU      3.30s WALL (     128 calls)

     Called by sum_band:
     sum_band:bec :      0.00s CPU      0.00s WALL (     128 calls)
     addusdens    :      0.10s CPU      0.10s WALL (       8 calls)

     Called by *egterg:
     h_psi        :      2.88s CPU      2.89s WALL (     418 calls)
     s_psi        :      0.17s CPU      0.15s WALL (     418 calls)
     g_psi        :      0.00s CPU      0.01s WALL (     274 calls)
     cdiaghg      :      0.09s CPU      0.08s WALL (     386 calls)

     Called by h_psi:
     h_psi:pot    :      2.87s CPU      2.89s WALL (     418 calls)
     h_psi:calbec :      0.15s CPU      0.15s WALL (     418 calls)
     vloc_psi     :      2.60s CPU      2.59s WALL (     418 calls)
     add_vuspsi   :      0.12s CPU      0.15s WALL (     418 calls)

     General routines
     calbec       :      0.24s CPU      0.23s WALL (     626 calls)
     fft          :      0.04s CPU      0.03s WALL (     115 calls)
     ffts         :      0.00s CPU      0.00s WALL (       8 calls)
     fftw         :      2.98s CPU      2.95s WALL (   11216 calls)
 
     Parallel routines
 
     PWSCF        :     7.09s CPU         7.18s WALL

 
   This run was terminated on:  15:56: 3  10May2022            

=------------------------------------------------------------------------------=
   JOB DONE.
=------------------------------------------------------------------------------=
